# Forces      
# CofR        : (0.000000e+00 0.000000e+00 0.000000e+00)
# Time        forces(pressure viscous)	moments(pressure viscous)
0             	((0.000000e+00 0.000000e+00 0.000000e+00) (6.488314e-05 -7.455013e-01 1.673990e-05)) ((0.000000e+00 0.000000e+00 0.000000e+00) (3.585932e-05 4.577573e-03 6.940375e-06))
1.04167e-05   	((5.806274e+01 1.767928e+05 6.007161e+01) (-2.571191e-03 -7.068979e-01 -8.717448e-05)) ((-3.410008e-01 -2.245830e+04 -8.138862e-01) (1.517795e-05 -1.099483e-01 3.115136e-06))
2.08333e-05   	((-2.452147e-01 1.360536e+05 5.980743e+01) (-1.988167e-02 -1.480707e+00 9.894436e-04)) ((-3.374003e+00 -1.733268e+04 -7.539666e-01) (-1.919935e-04 -3.198218e-01 -1.537358e-04))
3.125e-05     	((1.464281e+02 9.390388e+04 3.799684e+02) (-4.451437e-03 -6.984432e+00 3.946116e-02)) ((2.927262e+00 -1.251585e+04 1.388753e+01) (-9.047900e-05 -1.049980e+00 -1.054203e-03))
4.375e-05     	((4.414368e+02 4.519469e+04 3.258193e+02) (-6.411519e-02 -1.501866e+01 3.874470e-02)) ((2.126314e+01 -6.075647e+03 1.560844e+01) (5.518500e-05 -1.397778e+00 -4.102793e-03))
5.625e-05     	((2.296012e+02 1.158049e+04 4.214459e+01) (-5.423829e-02 -1.935836e+01 1.698957e-02)) ((1.073528e+01 -1.653278e+03 6.392476e+00) (-1.642744e-03 -1.226712e+00 -3.220984e-03))
6.875e-05     	((4.388472e+01 -1.541043e+03 -1.494088e+02) (-1.156835e-02 -2.139294e+01 3.449314e-02)) ((1.463955e+00 1.053702e+02 -3.492057e+00) (1.036037e-03 -1.198370e+00 -3.227444e-03))
8.125e-05     	((-6.683565e+01 -2.701424e+03 -1.402253e+02) (-2.744746e-03 -2.247838e+01 6.637600e-02)) ((-3.002493e+00 3.208013e+02 -5.768293e+00) (1.347707e-03 -1.247800e+00 -3.774854e-03))
9.375e-05     	((-7.186749e+01 1.119539e+02 -9.380031e+01) (-1.219992e-02 -2.311881e+01 8.918448e-02)) ((-2.971017e+00 2.043004e+00 -4.543821e+00) (1.033781e-03 -1.320978e+00 -4.371017e-03))
0.000107143   	((-4.104428e+01 2.859697e+03 -4.805113e+01) (-2.499441e-02 -2.354009e+01 9.973422e-02)) ((-1.889175e+00 -3.355668e+02 -2.742111e+00) (7.132129e-04 -1.410387e+00 -5.167869e-03))
0.000120536   	((-1.812601e+01 4.514070e+03 -2.406561e+01) (-2.788912e-02 -2.386114e+01 1.026974e-01)) ((-9.741177e-01 -5.471969e+02 -1.531920e+00) (5.218030e-04 -1.492525e+00 -5.530449e-03))
0.000133929   	((-6.294586e+00 5.193265e+03 -5.755406e+00) (-2.745830e-02 -2.416455e+01 1.081775e-01)) ((-3.761364e-01 -6.401227e+02 -6.759408e-01) (5.501849e-04 -1.558727e+00 -5.572062e-03))
0.000147321   	((-5.548514e-01 5.269979e+03 7.870389e+00) (-2.503430e-02 -2.444463e+01 1.060080e-01)) ((-3.865154e-03 -6.586898e+02 -1.600851e-01) (5.806908e-04 -1.611434e+00 -5.262226e-03))
0.000162768   	((1.674128e+00 5.015549e+03 1.536917e+01) (-1.528161e-02 -2.474862e+01 1.073913e-01)) ((1.656490e-01 -6.340807e+02 9.088419e-02) (1.157540e-03 -1.656861e+00 -4.765143e-03))
0.000178214   	((-1.106670e+00 4.771245e+03 1.753293e+01) (-1.084528e-02 -2.502990e+01 1.012571e-01)) ((1.023150e-01 -6.081706e+02 1.573884e-01) (1.649887e-03 -1.690071e+00 -4.707698e-03))
0.000193661   	((-9.220984e+00 4.601388e+03 1.538348e+01) (-9.898957e-03 -2.527764e+01 9.554014e-02)) ((-2.115464e-01 -5.890704e+02 7.317915e-02) (1.966146e-03 -1.714964e+00 -4.714338e-03))
0.000209107   	((-1.570594e+01 4.509183e+03 7.709062e+00) (-9.706473e-03 -2.548914e+01 9.295362e-02)) ((-4.617773e-01 -5.777621e+02 -1.810967e-01) (2.194571e-03 -1.733918e+00 -4.699411e-03))
0.000224554   	((-1.964496e+01 4.469088e+03 -1.191034e+00) (-9.388767e-03 -2.566445e+01 9.267073e-02)) ((-5.835446e-01 -5.716115e+02 -4.632754e-01) (2.383108e-03 -1.748626e+00 -4.646757e-03))
0.00024       	((-2.098804e+01 4.457535e+03 -6.968465e+00) (-1.231232e-02 -2.580743e+01 9.379261e-02)) ((-6.371241e-01 -5.680922e+02 -6.493554e-01) (2.392350e-03 -1.759840e+00 -4.593924e-03))
0.000257143   	((-1.954629e+01 4.424305e+03 -8.994579e+00) (-1.690900e-02 -2.592391e+01 9.527767e-02)) ((-6.117938e-01 -5.608379e+02 -7.019369e-01) (2.301885e-03 -1.769496e+00 -4.603459e-03))
0.000274286   	((-1.840503e+01 4.426084e+03 -1.064953e+01) (-1.773597e-02 -2.600174e+01 9.409036e-02)) ((-5.747483e-01 -5.579161e+02 -7.450848e-01) (2.101026e-03 -1.776452e+00 -4.548222e-03))
0.000291429   	((-1.657534e+01 4.437899e+03 -1.105017e+01) (-1.568455e-02 -2.605046e+01 9.554445e-02)) ((-4.980941e-01 -5.564420e+02 -7.376570e-01) (2.178274e-03 -1.780886e+00 -4.552923e-03))
0.000308571   	((-1.345270e+01 4.449172e+03 -1.047307e+01) (-1.620428e-02 -2.607717e+01 1.005379e-01)) ((-3.799616e-01 -5.551959e+02 -6.831775e-01) (2.166520e-03 -1.782982e+00 -4.417886e-03))
0.000325714   	((-9.535041e+00 4.456189e+03 -9.932991e+00) (-1.693145e-02 -2.608067e+01 1.028836e-01)) ((-2.379786e-01 -5.536276e+02 -6.439251e-01) (2.152203e-03 -1.784053e+00 -4.319798e-03))
0.000342857   	((-6.542359e+00 4.459464e+03 -9.230069e+00) (-1.822849e-02 -2.606404e+01 1.036705e-01)) ((-1.262534e-01 -5.518382e+02 -6.288891e-01) (2.116103e-03 -1.784245e+00 -4.343933e-03))
0.00036       	((-5.300859e+00 4.458727e+03 -9.230551e+00) (-1.952113e-02 -2.602994e+01 1.024277e-01)) ((-5.865629e-02 -5.499088e+02 -6.429459e-01) (2.078369e-03 -1.783816e+00 -4.510605e-03))
0.00038       	((-3.752256e+00 4.401729e+03 -7.811850e+00) (-2.105240e-02 -2.596633e+01 1.003090e-01)) ((-1.426894e-02 -5.409413e+02 -5.937289e-01) (2.066966e-03 -1.782743e+00 -4.736313e-03))
0.0004        	((-2.988325e+00 4.387740e+03 -6.674982e+00) (-2.234185e-02 -2.588515e+01 1.000768e-01)) ((1.259225e-02 -5.374384e+02 -5.902611e-01) (2.095728e-03 -1.780826e+00 -4.844956e-03))
0.00042       	((-3.744129e+00 4.388464e+03 -4.700969e+00) (-2.451033e-02 -2.578999e+01 1.009854e-01)) ((1.923806e-03 -5.358994e+02 -5.838642e-01) (2.139184e-03 -1.777800e+00 -4.931879e-03))
0.00044       	((-4.207117e+00 4.391850e+03 -2.280477e+00) (-2.526102e-02 -2.568232e+01 1.031234e-01)) ((-2.387814e-02 -5.348361e+02 -5.585833e-01) (2.236880e-03 -1.773888e+00 -4.946969e-03))
0.00046       	((-3.560908e+00 4.392066e+03 -7.448286e-01) (-2.663381e-02 -2.556563e+01 1.071846e-01)) ((-1.863284e-03 -5.335812e+02 -5.483872e-01) (2.282349e-03 -1.769151e+00 -4.828672e-03))
0.00048       	((-3.487116e+00 4.389133e+03 5.114788e-01) (-2.942568e-02 -2.544097e+01 1.125593e-01)) ((4.392804e-03 -5.320570e+02 -5.064441e-01) (2.323134e-03 -1.763743e+00 -4.560627e-03))
0.0005        	((-3.842757e+00 4.384236e+03 2.287857e+00) (-3.133404e-02 -2.530743e+01 1.174725e-01)) ((-4.772836e-03 -5.304015e+02 -4.022896e-01) (2.422102e-03 -1.758034e+00 -4.253865e-03))
0.00052       	((-4.270386e+00 4.378648e+03 3.647062e+00) (-3.324193e-02 -2.516690e+01 1.216992e-01)) ((-1.123112e-02 -5.287222e+02 -2.945206e-01) (2.554812e-03 -1.751970e+00 -3.915966e-03))
0.00054       	((-4.420080e+00 4.372591e+03 5.137073e+00) (-3.595461e-02 -2.501955e+01 1.246313e-01)) ((-1.055590e-02 -5.269820e+02 -1.792577e-01) (2.673412e-03 -1.745606e+00 -3.602018e-03))
0.00056       	((-3.940471e+00 4.366299e+03 5.949281e+00) (-3.923930e-02 -2.486592e+01 1.252037e-01)) ((1.394618e-03 -5.252139e+02 -9.087829e-02) (2.731807e-03 -1.739036e+00 -3.429266e-03))
0.00058       	((-3.988596e+00 4.359672e+03 6.772437e+00) (-4.079941e-02 -2.470634e+01 1.248286e-01)) ((-8.940526e-03 -5.234142e+02 -9.020886e-03) (2.768916e-03 -1.732210e+00 -3.313426e-03))
0.0006        	((-4.228157e+00 4.353283e+03 7.930081e+00) (-4.227725e-02 -2.454225e+01 1.253925e-01)) ((-3.665882e-02 -5.216815e+02 7.127713e-02) (2.741287e-03 -1.725178e+00 -3.158668e-03))
0.00062       	((-4.209859e+00 4.346789e+03 9.364471e+00) (-4.345703e-02 -2.437534e+01 1.253393e-01)) ((-6.104383e-02 -5.199793e+02 1.479112e-01) (2.692963e-03 -1.717928e+00 -3.066204e-03))
0.00064       	((-4.419316e+00 4.339407e+03 1.073647e+01) (-4.333542e-02 -2.420875e+01 1.235130e-01)) ((-1.056773e-01 -5.182195e+02 2.068720e-01) (2.704234e-03 -1.710272e+00 -3.180259e-03))
0.00066       	((-4.944508e+00 4.331199e+03 1.101062e+01) (-4.687739e-02 -2.404253e+01 1.203347e-01)) ((-1.656344e-01 -5.163773e+02 2.327556e-01) (2.586946e-03 -1.702316e+00 -3.355622e-03))
0.00068       	((-5.576586e+00 4.322811e+03 9.909477e+00) (-4.943086e-02 -2.387630e+01 1.163030e-01)) ((-2.194760e-01 -5.145103e+02 2.161346e-01) (2.559874e-03 -1.694187e+00 -3.621544e-03))
0.0007        	((-5.853402e+00 4.314767e+03 8.131611e+00) (-5.204509e-02 -2.371051e+01 1.119379e-01)) ((-2.622571e-01 -5.126995e+02 1.809749e-01) (2.508822e-03 -1.685982e+00 -3.851197e-03))
0.00072       	((-5.708474e+00 4.307641e+03 7.174850e+00) (-5.429258e-02 -2.354329e+01 1.086772e-01)) ((-3.009557e-01 -5.110189e+02 1.607052e-01) (2.456337e-03 -1.677879e+00 -4.053579e-03))
0.00074       	((-5.456491e+00 4.300825e+03 6.714376e+00) (-5.647384e-02 -2.337492e+01 1.059032e-01)) ((-3.383740e-01 -5.094323e+02 1.372436e-01) (2.419256e-03 -1.669888e+00 -4.207398e-03))
0.00076       	((-5.126178e+00 4.293421e+03 6.943830e+00) (-5.877210e-02 -2.320572e+01 1.029044e-01)) ((-3.821024e-01 -5.078792e+02 1.361375e-01) (2.415497e-03 -1.661981e+00 -4.381243e-03))
0.00078       	((-5.013133e+00 4.285317e+03 7.519478e+00) (-6.117327e-02 -2.303644e+01 9.962575e-02)) ((-4.458595e-01 -5.062989e+02 1.465269e-01) (2.444402e-03 -1.654070e+00 -4.538784e-03))
0.0008        	((-5.477282e+00 4.276571e+03 8.131829e+00) (-6.341050e-02 -2.286784e+01 9.742373e-02)) ((-5.272954e-01 -5.046867e+02 1.595076e-01) (2.434495e-03 -1.646033e+00 -4.599177e-03))
0.00082       	((-6.018009e+00 4.267081e+03 9.085731e+00) (-6.452528e-02 -2.270141e+01 9.542455e-02)) ((-6.005643e-01 -5.030172e+02 1.848163e-01) (2.444073e-03 -1.637868e+00 -4.593846e-03))
0.00084       	((-6.121615e+00 4.256741e+03 1.026739e+01) (-6.493518e-02 -2.253576e+01 9.376048e-02)) ((-6.618076e-01 -5.012914e+02 2.281965e-01) (2.522090e-03 -1.629729e+00 -4.533807e-03))
0.00086       	((-5.664637e+00 4.245879e+03 1.149134e+01) (-6.511715e-02 -2.237126e+01 9.232739e-02)) ((-7.131649e-01 -4.995182e+02 2.775542e-01) (2.614802e-03 -1.621539e+00 -4.405759e-03))
0.00088       	((-5.046086e+00 4.234136e+03 1.295047e+01) (-6.476286e-02 -2.220945e+01 9.148943e-02)) ((-7.582491e-01 -4.976705e+02 3.386143e-01) (2.713075e-03 -1.613318e+00 -4.232886e-03))
0.0009        	((-3.900951e+00 4.221505e+03 1.446206e+01) (-6.439570e-02 -2.205114e+01 9.271432e-02)) ((-7.866190e-01 -4.957221e+02 4.089014e-01) (2.726953e-03 -1.604993e+00 -3.963710e-03))
0.000915      	((-3.962449e+00 4.329778e+03 1.517798e+01) (-6.415808e-02 -2.194132e+01 9.537778e-02)) ((-8.741417e-01 -5.088084e+02 4.489534e-01) (2.682013e-03 -1.598216e+00 -3.605790e-03))
0.00093       	((-4.793019e+00 4.349211e+03 1.945724e+01) (-6.389088e-02 -2.183573e+01 9.889014e-02)) ((-9.765518e-01 -5.111715e+02 6.329645e-01) (2.646060e-03 -1.591438e+00 -3.172896e-03))
0.000945      	((-5.699973e+00 4.332664e+03 2.478408e+01) (-6.346346e-02 -2.173100e+01 1.006580e-01)) ((-1.068426e+00 -5.090861e+02 8.570356e-01) (2.619128e-03 -1.584846e+00 -2.784523e-03))
0.00096       	((-6.602696e+00 4.304129e+03 2.929940e+01) (-6.303501e-02 -2.162663e+01 1.011031e-01)) ((-1.136091e+00 -5.054836e+02 1.058111e+00) (2.592558e-03 -1.578375e+00 -2.460029e-03))
0.000977143   	((-6.189228e+00 4.221667e+03 3.183114e+01) (-6.294656e-02 -2.150331e+01 1.019481e-01)) ((-1.110397e+00 -4.951522e+02 1.184443e+00) (2.547961e-03 -1.571303e+00 -2.081341e-03))
0.000994286   	((-5.435726e+00 4.182679e+03 3.307670e+01) (-6.245713e-02 -2.137845e+01 1.025886e-01)) ((-1.075967e+00 -4.900230e+02 1.250591e+00) (2.562461e-03 -1.564356e+00 -1.688332e-03))
0.00101143    	((-4.437615e+00 4.163537e+03 3.367443e+01) (-6.220217e-02 -2.125434e+01 1.026036e-01)) ((-1.043598e+00 -4.873336e+02 1.304772e+00) (2.646277e-03 -1.557368e+00 -1.353159e-03))
0.00102857    	((-3.671839e+00 4.152243e+03 3.383376e+01) (-6.185327e-02 -2.113286e+01 1.020638e-01)) ((-1.019900e+00 -4.856444e+02 1.325587e+00) (2.713746e-03 -1.550252e+00 -1.088166e-03))
0.00104571    	((-3.541275e+00 4.141908e+03 3.364891e+01) (-6.138360e-02 -2.101418e+01 1.013233e-01)) ((-1.021525e+00 -4.841520e+02 1.309335e+00) (2.709670e-03 -1.543082e+00 -8.775086e-04))
0.00106286    	((-3.919414e+00 4.130315e+03 3.334318e+01) (-6.082527e-02 -2.089894e+01 9.980605e-02)) ((-1.042089e+00 -4.825571e+02 1.268072e+00) (2.666899e-03 -1.535844e+00 -7.694362e-04))
0.00108       	((-4.903567e+00 4.116881e+03 3.254335e+01) (-5.981927e-02 -2.078588e+01 9.776622e-02)) ((-1.082407e+00 -4.807821e+02 1.192355e+00) (2.655054e-03 -1.528686e+00 -7.727029e-04))
0.00109714    	((-5.945516e+00 4.101736e+03 3.108102e+01) (-5.881620e-02 -2.067459e+01 9.632464e-02)) ((-1.119569e+00 -4.788333e+02 1.088073e+00) (2.654091e-03 -1.521635e+00 -8.649126e-04))
0.00111429    	((-6.856031e+00 4.085526e+03 2.923534e+01) (-5.816981e-02 -2.056583e+01 9.579136e-02)) ((-1.145939e+00 -4.767829e+02 9.664953e-01) (2.631046e-03 -1.514660e+00 -9.220124e-04))
0.00113143    	((-7.646623e+00 4.068793e+03 2.755780e+01) (-5.728360e-02 -2.045876e+01 9.575980e-02)) ((-1.158880e+00 -4.746871e+02 8.561693e-01) (2.677596e-03 -1.507778e+00 -9.689451e-04))
0.00114857    	((-8.001190e+00 4.052129e+03 2.603709e+01) (-5.596205e-02 -2.035468e+01 9.587344e-02)) ((-1.154772e+00 -4.725936e+02 7.713165e-01) (2.746917e-03 -1.500915e+00 -1.029152e-03))
0.00116571    	((-8.211135e+00 4.035478e+03 2.494656e+01) (-5.460488e-02 -2.025365e+01 9.538099e-02)) ((-1.149904e+00 -4.704927e+02 7.184315e-01) (2.813430e-03 -1.494070e+00 -1.105676e-03))
0.00118286    	((-8.160863e+00 4.018966e+03 2.420188e+01) (-5.321017e-02 -2.015501e+01 9.408258e-02)) ((-1.136107e+00 -4.684057e+02 6.929510e-01) (2.888794e-03 -1.487263e+00 -1.218124e-03))
0.0012        	((-8.188285e+00 4.002445e+03 2.330221e+01) (-5.221564e-02 -2.005913e+01 9.210969e-02)) ((-1.118153e+00 -4.662971e+02 6.733834e-01) (2.957837e-03 -1.480474e+00 -1.325906e-03))
0.00121714    	((-8.495128e+00 3.985973e+03 2.256195e+01) (-5.167489e-02 -1.996623e+01 9.046937e-02)) ((-1.120296e+00 -4.641729e+02 6.560047e-01) (3.031103e-03 -1.473722e+00 -1.408362e-03))
0.00123429    	((-9.255538e+00 3.969365e+03 2.160819e+01) (-5.149573e-02 -1.987581e+01 8.894468e-02)) ((-1.138225e+00 -4.620191e+02 6.269137e-01) (3.088363e-03 -1.467036e+00 -1.446551e-03))
0.00125143    	((-1.016590e+01 3.953141e+03 2.058305e+01) (-5.166973e-02 -1.978792e+01 8.756195e-02)) ((-1.159085e+00 -4.599098e+02 5.925552e-01) (3.126053e-03 -1.460420e+00 -1.456760e-03))
0.00126857    	((-1.075080e+01 3.937238e+03 1.996053e+01) (-5.193238e-02 -1.970262e+01 8.569366e-02)) ((-1.177383e+00 -4.578339e+02 5.774851e-01) (3.162859e-03 -1.453853e+00 -1.460679e-03))
0.00128571    	((-1.170104e+01 3.921724e+03 1.980521e+01) (-5.251202e-02 -1.961860e+01 8.404970e-02)) ((-1.212651e+00 -4.558209e+02 5.708948e-01) (3.210113e-03 -1.447406e+00 -1.400181e-03))
0.00130286    	((-1.288688e+01 3.906349e+03 2.025828e+01) (-5.384685e-02 -1.953566e+01 8.309927e-02)) ((-1.269262e+00 -4.538274e+02 5.824481e-01) (3.264164e-03 -1.441115e+00 -1.296493e-03))
0.00132       	((-1.379432e+01 3.891351e+03 2.072821e+01) (-5.538265e-02 -1.945448e+01 8.238707e-02)) ((-1.316266e+00 -4.518794e+02 5.910450e-01) (3.322279e-03 -1.434913e+00 -1.174847e-03))
0.00133714    	((-1.439854e+01 3.876499e+03 2.148672e+01) (-5.691226e-02 -1.937596e+01 8.179113e-02)) ((-1.357378e+00 -4.499570e+02 6.068168e-01) (3.378783e-03 -1.428758e+00 -1.054447e-03))
0.00135429    	((-1.459573e+01 3.861703e+03 2.223809e+01) (-5.862811e-02 -1.930029e+01 8.096879e-02)) ((-1.380745e+00 -4.480310e+02 6.197031e-01) (3.410888e-03 -1.422626e+00 -9.493782e-04))
0.00137143    	((-1.503470e+01 3.846845e+03 2.252450e+01) (-6.066840e-02 -1.922747e+01 7.989581e-02)) ((-1.403037e+00 -4.460938e+02 6.191418e-01) (3.411375e-03 -1.416529e+00 -8.654900e-04))
0.00138857    	((-1.553768e+01 3.831994e+03 2.222373e+01) (-6.299337e-02 -1.915726e+01 7.864881e-02)) ((-1.429202e+00 -4.441437e+02 6.031813e-01) (3.403037e-03 -1.410502e+00 -8.176662e-04))
0.00140571    	((-1.623559e+01 3.817352e+03 2.135280e+01) (-6.570177e-02 -1.908919e+01 7.733271e-02)) ((-1.455886e+00 -4.422074e+02 5.671510e-01) (3.378655e-03 -1.404559e+00 -7.917076e-04))
0.00142286    	((-1.699683e+01 3.803052e+03 1.998965e+01) (-6.829981e-02 -1.902349e+01 7.573316e-02)) ((-1.471965e+00 -4.402896e+02 5.040554e-01) (3.358575e-03 -1.398651e+00 -7.841216e-04))
0.00144       	((-1.763551e+01 3.789170e+03 1.830605e+01) (-7.082574e-02 -1.896006e+01 7.366620e-02)) ((-1.478062e+00 -4.384103e+02 4.335247e-01) (3.349340e-03 -1.392808e+00 -8.159810e-04))
0.00145714    	((-1.785759e+01 3.775743e+03 1.647538e+01) (-7.340727e-02 -1.889761e+01 7.236982e-02)) ((-1.477567e+00 -4.365725e+02 3.609534e-01) (3.332735e-03 -1.387154e+00 -7.822541e-04))
0.00147429    	((-1.843886e+01 3.762701e+03 1.556154e+01) (-7.706112e-02 -1.883531e+01 7.212197e-02)) ((-1.497303e+00 -4.348161e+02 3.265869e-01) (3.245519e-03 -1.381762e+00 -6.643710e-04))
0.00149143    	((-1.903559e+01 3.750469e+03 1.556686e+01) (-8.122194e-02 -1.877414e+01 7.174539e-02)) ((-1.515033e+00 -4.331914e+02 3.313678e-01) (3.129869e-03 -1.376566e+00 -5.645017e-04))
0.00150857    	((-1.968636e+01 3.738898e+03 1.583742e+01) (-8.462345e-02 -1.871471e+01 7.116660e-02)) ((-1.533519e+00 -4.316622e+02 3.511903e-01) (3.077469e-03 -1.371500e+00 -5.016940e-04))
0.00152571    	((-2.052211e+01 3.727654e+03 1.607656e+01) (-8.737445e-02 -1.865671e+01 7.037648e-02)) ((-1.554853e+00 -4.301535e+02 3.574551e-01) (3.085356e-03 -1.366546e+00 -4.657487e-04))
0.00154286    	((-2.152416e+01 3.716522e+03 1.642555e+01) (-8.965468e-02 -1.860056e+01 6.928533e-02)) ((-1.582849e+00 -4.286430e+02 3.532426e-01) (3.137380e-03 -1.361621e+00 -4.467114e-04))
0.00156       	((-2.232025e+01 3.705568e+03 1.712493e+01) (-9.171821e-02 -1.854598e+01 6.799353e-02)) ((-1.607697e+00 -4.271564e+02 3.515486e-01) (3.225256e-03 -1.356709e+00 -4.316753e-04))
0.00157714    	((-2.283456e+01 3.695082e+03 1.763450e+01) (-9.362960e-02 -1.849287e+01 6.665502e-02)) ((-1.615212e+00 -4.257145e+02 3.559978e-01) (3.330985e-03 -1.351800e+00 -4.014845e-04))
0.00159429    	((-2.298969e+01 3.685148e+03 1.801684e+01) (-9.589721e-02 -1.844122e+01 6.523050e-02)) ((-1.607363e+00 -4.243197e+02 3.648561e-01) (3.432443e-03 -1.346946e+00 -3.599073e-04))
0.00161143    	((-2.313431e+01 3.675385e+03 1.848424e+01) (-9.841219e-02 -1.839094e+01 6.417287e-02)) ((-1.594361e+00 -4.229451e+02 3.723471e-01) (3.522435e-03 -1.342168e+00 -3.042310e-04))
0.00162857    	((-2.362099e+01 3.665527e+03 1.884201e+01) (-1.004406e-01 -1.834266e+01 6.308514e-02)) ((-1.595363e+00 -4.215589e+02 3.732594e-01) (3.642042e-03 -1.337435e+00 -2.719206e-04))
0.00164571    	((-2.319742e+01 3.655474e+03 1.866393e+01) (-1.014066e-01 -1.829672e+01 6.220024e-02)) ((-1.558201e+00 -4.201567e+02 3.577326e-01) (3.830688e-03 -1.332757e+00 -2.775553e-04))
0.00166286    	((-2.243927e+01 3.645195e+03 1.826984e+01) (-1.023859e-01 -1.825193e+01 6.149820e-02)) ((-1.512695e+00 -4.187395e+02 3.361821e-01) (4.024622e-03 -1.328215e+00 -2.866186e-04))
0.00168       	((-2.191793e+01 3.635028e+03 1.789878e+01) (-1.039158e-01 -1.820845e+01 6.084821e-02)) ((-1.477757e+00 -4.173507e+02 3.084574e-01) (4.235173e-03 -1.323815e+00 -3.124758e-04))
0.00169714    	((-2.179710e+01 3.624939e+03 1.747235e+01) (-1.058495e-01 -1.816574e+01 6.027923e-02)) ((-1.456564e+00 -4.159945e+02 2.743629e-01) (4.442289e-03 -1.319540e+00 -3.411979e-04))
0.00171429    	((-2.178471e+01 3.614930e+03 1.706772e+01) (-1.078589e-01 -1.812375e+01 5.989808e-02)) ((-1.438552e+00 -4.146956e+02 2.397878e-01) (4.635110e-03 -1.315392e+00 -3.673534e-04))
0.00173143    	((-2.228907e+01 3.605305e+03 1.669434e+01) (-1.099959e-01 -1.808250e+01 5.950683e-02)) ((-1.449569e+00 -4.134456e+02 1.944450e-01) (4.816278e-03 -1.311360e+00 -4.015201e-04))
0.00174857    	((-2.270934e+01 3.596253e+03 1.608129e+01) (-1.122131e-01 -1.804239e+01 5.932839e-02)) ((-1.459303e+00 -4.122426e+02 1.378030e-01) (5.001055e-03 -1.307411e+00 -4.382054e-04))
0.00176571    	((-2.317930e+01 3.587763e+03 1.524076e+01) (-1.140633e-01 -1.800334e+01 5.938723e-02)) ((-1.465380e+00 -4.110999e+02 7.948817e-02) (5.200673e-03 -1.303562e+00 -4.785615e-04))
0.00178286    	((-2.389809e+01 3.579670e+03 1.437005e+01) (-1.159895e-01 -1.796535e+01 5.979765e-02)) ((-1.474638e+00 -4.099878e+02 1.770319e-02) (5.412021e-03 -1.299783e+00 -5.204741e-04))
0.0018        	((-2.458241e+01 3.571778e+03 1.364780e+01) (-1.181038e-01 -1.792835e+01 6.039972e-02)) ((-1.476904e+00 -4.088904e+02 -3.196875e-02) (5.628641e-03 -1.296106e+00 -5.664784e-04))
0.00181714    	((-2.487850e+01 3.563992e+03 1.294627e+01) (-1.203748e-01 -1.789260e+01 6.119580e-02)) ((-1.467968e+00 -4.077839e+02 -6.511006e-02) (5.828493e-03 -1.292511e+00 -5.880331e-04))
0.00183429    	((-2.541039e+01 3.556366e+03 1.249153e+01) (-1.255922e-01 -1.786028e+01 6.241777e-02)) ((-1.479395e+00 -4.066666e+02 -8.417353e-02) (5.817298e-03 -1.288737e+00 -4.604259e-04))
0.00185143    	((-2.610833e+01 3.549216e+03 1.241452e+01) (-1.310165e-01 -1.782946e+01 6.315070e-02)) ((-1.502294e+00 -4.055935e+02 -8.990042e-02) (5.753714e-03 -1.285046e+00 -3.102783e-04))
0.00186857    	((-2.704837e+01 3.542139e+03 1.249992e+01) (-1.355089e-01 -1.779910e+01 6.336333e-02)) ((-1.534180e+00 -4.045346e+02 -9.315362e-02) (5.738450e-03 -1.281566e+00 -1.953493e-04))
0.00188571    	((-2.715011e+01 3.535069e+03 1.210598e+01) (-1.364947e-01 -1.777153e+01 6.298954e-02)) ((-1.526695e+00 -4.034824e+02 -1.184267e-01) (5.952258e-03 -1.278045e+00 -2.254598e-04))
0.00190286    	((-2.677672e+01 3.527955e+03 1.168946e+01) (-1.362362e-01 -1.774540e+01 6.276506e-02)) ((-1.510234e+00 -4.024363e+02 -1.484326e-01) (6.271405e-03 -1.274628e+00 -3.167722e-04))
0.00192       	((-2.632248e+01 3.521245e+03 1.116197e+01) (-1.367982e-01 -1.771936e+01 6.275847e-02)) ((-1.491561e+00 -4.014428e+02 -1.850241e-01) (6.570829e-03 -1.271464e+00 -3.851306e-04))
0.00193714    	((-2.589436e+01 3.514837e+03 1.072557e+01) (-1.380913e-01 -1.769389e+01 6.312768e-02)) ((-1.475574e+00 -4.005161e+02 -2.203740e-01) (6.865464e-03 -1.268478e+00 -4.264765e-04))
0.00195429    	((-2.593858e+01 3.508875e+03 1.046642e+01) (-1.396764e-01 -1.766899e+01 6.380697e-02)) ((-1.471769e+00 -3.996594e+02 -2.533377e-01) (7.163718e-03 -1.265620e+00 -4.701090e-04))
0.00197143    	((-2.614679e+01 3.503288e+03 1.004414e+01) (-1.413882e-01 -1.764456e+01 6.457892e-02)) ((-1.475469e+00 -3.988497e+02 -2.855710e-01) (7.468308e-03 -1.262876e+00 -5.167358e-04))
0.00198857    	((-2.625503e+01 3.497972e+03 9.338500e+00) (-1.434269e-01 -1.762060e+01 6.515757e-02)) ((-1.474257e+00 -3.980756e+02 -3.216352e-01) (7.764123e-03 -1.260254e+00 -5.905386e-04))
0.00200571    	((-2.658482e+01 3.492960e+03 9.029373e+00) (-1.457870e-01 -1.759714e+01 6.573331e-02)) ((-1.482544e+00 -3.973412e+02 -3.492659e-01) (8.057359e-03 -1.257735e+00 -6.757024e-04))
0.00202286    	((-2.691889e+01 3.487892e+03 8.898910e+00) (-1.485160e-01 -1.757446e+01 6.625519e-02)) ((-1.495890e+00 -3.966146e+02 -3.742093e-01) (8.332594e-03 -1.255298e+00 -7.684268e-04))
0.00204       	((-2.742627e+01 3.483029e+03 9.028049e+00) (-1.514718e-01 -1.755250e+01 6.669204e-02)) ((-1.517976e+00 -3.959025e+02 -3.988120e-01) (8.587873e-03 -1.252957e+00 -8.648179e-04))
0.00205714    	((-2.791219e+01 3.478429e+03 9.231953e+00) (-1.542085e-01 -1.753080e+01 6.711201e-02)) ((-1.540379e+00 -3.952293e+02 -4.184791e-01) (8.843482e-03 -1.250745e+00 -9.577865e-04))
0.00207429    	((-2.850724e+01 3.474102e+03 9.315117e+00) (-1.573545e-01 -1.750943e+01 6.761066e-02)) ((-1.558664e+00 -3.945954e+02 -4.432194e-01) (9.080402e-03 -1.248681e+00 -1.052273e-03))
0.00209143    	((-2.908448e+01 3.470194e+03 9.380564e+00) (-1.604607e-01 -1.748876e+01 6.808906e-02)) ((-1.572509e+00 -3.940156e+02 -4.683197e-01) (9.318000e-03 -1.246684e+00 -1.135986e-03))
0.00210857    	((-2.974642e+01 3.466691e+03 9.231739e+00) (-1.631722e-01 -1.746875e+01 6.884205e-02)) ((-1.591470e+00 -3.934812e+02 -5.053423e-01) (9.570574e-03 -1.244732e+00 -1.203354e-03))
0.00212571    	((-3.029350e+01 3.463463e+03 8.664249e+00) (-1.659141e-01 -1.744938e+01 6.970661e-02)) ((-1.605283e+00 -3.929859e+02 -5.548929e-01) (9.829922e-03 -1.242809e+00 -1.252929e-03))
0.00214286    	((-3.050426e+01 3.460202e+03 7.878492e+00) (-1.689032e-01 -1.743080e+01 7.096491e-02)) ((-1.604011e+00 -3.924846e+02 -6.066476e-01) (1.006997e-02 -1.240930e+00 -1.299653e-03))
0.00216       	((-3.056966e+01 3.456897e+03 7.124595e+00) (-1.722243e-01 -1.741288e+01 7.236330e-02)) ((-1.589588e+00 -3.919629e+02 -6.518036e-01) (1.030318e-02 -1.239109e+00 -1.343197e-03))
0.00217714    	((-3.078868e+01 3.453720e+03 6.825892e+00) (-1.757582e-01 -1.739564e+01 7.393166e-02)) ((-1.584736e+00 -3.914646e+02 -6.779238e-01) (1.053139e-02 -1.237322e+00 -1.380437e-03))
0.00219429    	((-3.152066e+01 3.450433e+03 6.407015e+00) (-1.791652e-01 -1.737902e+01 7.547591e-02)) ((-1.604485e+00 -3.909550e+02 -7.102463e-01) (1.075897e-02 -1.235567e+00 -1.415686e-03))
0.00221143    	((-3.245295e+01 3.447580e+03 6.379782e+00) (-1.825030e-01 -1.736307e+01 7.720541e-02)) ((-1.636459e+00 -3.904787e+02 -7.342687e-01) (1.098330e-02 -1.233872e+00 -1.449510e-03))
0.00222857    	((-3.340499e+01 3.445038e+03 6.480732e+00) (-1.859608e-01 -1.734784e+01 7.906598e-02)) ((-1.671132e+00 -3.900543e+02 -7.501580e-01) (1.120319e-02 -1.232239e+00 -1.481639e-03))
0.00224571    	((-3.408748e+01 3.443118e+03 6.312200e+00) (-1.895150e-01 -1.733331e+01 8.109488e-02)) ((-1.699526e+00 -3.896763e+02 -7.702656e-01) (1.141956e-02 -1.230658e+00 -1.510692e-03))
0.00226286    	((-3.483003e+01 3.441801e+03 6.284123e+00) (-1.931367e-01 -1.731946e+01 8.323400e-02)) ((-1.727661e+00 -3.893366e+02 -7.918325e-01) (1.163376e-02 -1.229126e+00 -1.537012e-03))
0.00228       	((-3.550996e+01 3.440678e+03 5.981843e+00) (-1.965093e-01 -1.730597e+01 8.548219e-02)) ((-1.757268e+00 -3.889988e+02 -8.139459e-01) (1.185706e-02 -1.227671e+00 -1.569030e-03))
0.00229714    	((-3.597330e+01 3.439720e+03 5.696488e+00) (-2.000177e-01 -1.729306e+01 8.788861e-02)) ((-1.779354e+00 -3.886739e+02 -8.311220e-01) (1.207699e-02 -1.226269e+00 -1.604244e-03))
0.00231429    	((-3.628513e+01 3.438767e+03 5.763572e+00) (-2.034698e-01 -1.728097e+01 9.027137e-02)) ((-1.800183e+00 -3.883489e+02 -8.360119e-01) (1.230536e-02 -1.224907e+00 -1.629768e-03))
0.00233143    	((-3.634578e+01 3.437681e+03 6.423742e+00) (-2.053047e-01 -1.727084e+01 9.287701e-02)) ((-1.816528e+00 -3.880058e+02 -8.246706e-01) (1.262196e-02 -1.223434e+00 -1.603450e-03))
0.00234857    	((-3.610822e+01 3.436724e+03 6.976378e+00) (-2.075208e-01 -1.726135e+01 9.528856e-02)) ((-1.806357e+00 -3.876712e+02 -8.141041e-01) (1.293539e-02 -1.222033e+00 -1.584991e-03))
0.00236571    	((-3.628508e+01 3.436103e+03 7.433065e+00) (-2.101688e-01 -1.725235e+01 9.753232e-02)) ((-1.811865e+00 -3.873805e+02 -8.090154e-01) (1.323486e-02 -1.220713e+00 -1.575516e-03))
0.00238286    	((-3.641968e+01 3.435306e+03 7.512293e+00) (-2.133650e-01 -1.724392e+01 9.966530e-02)) ((-1.823245e+00 -3.870983e+02 -8.211904e-01) (1.352567e-02 -1.219489e+00 -1.565164e-03))
0.0024        	((-3.645762e+01 3.434466e+03 7.095864e+00) (-2.171421e-01 -1.723606e+01 1.018487e-01)) ((-1.828308e+00 -3.868301e+02 -8.437454e-01) (1.380799e-02 -1.218363e+00 -1.543729e-03))
0.00241714    	((-3.640188e+01 3.433955e+03 5.976946e+00) (-2.201396e-01 -1.722961e+01 1.040844e-01)) ((-1.821624e+00 -3.865905e+02 -8.967431e-01) (1.414791e-02 -1.217228e+00 -1.540276e-03))
0.00243429    	((-3.607112e+01 3.434040e+03 4.776280e+00) (-2.224364e-01 -1.722448e+01 1.067917e-01)) ((-1.814483e+00 -3.863797e+02 -9.533090e-01) (1.455452e-02 -1.216067e+00 -1.560012e-03))
0.00245143    	((-3.573796e+01 3.434588e+03 3.711883e+00) (-2.254163e-01 -1.721935e+01 1.096865e-01)) ((-1.817433e+00 -3.862081e+02 -1.003813e+00) (1.494202e-02 -1.214986e+00 -1.579936e-03))
0.00246857    	((-3.553585e+01 3.435246e+03 3.028210e+00) (-2.291080e-01 -1.721447e+01 1.126637e-01)) ((-1.829319e+00 -3.860664e+02 -1.037801e+00) (1.532519e-02 -1.213988e+00 -1.593033e-03))
0.00248571    	((-3.601445e+01 3.436051e+03 2.378866e+00) (-2.328537e-01 -1.720983e+01 1.157865e-01)) ((-1.867107e+00 -3.859640e+02 -1.069478e+00) (1.571505e-02 -1.213051e+00 -1.591608e-03))
0.00250286    	((-3.624876e+01 3.437217e+03 1.664845e+00) (-2.364883e-01 -1.720542e+01 1.192144e-01)) ((-1.894446e+00 -3.859113e+02 -1.096942e+00) (1.611928e-02 -1.212161e+00 -1.580922e-03))
0.00252       	((-3.685199e+01 3.438415e+03 9.107595e-01) (-2.401420e-01 -1.720139e+01 1.228621e-01)) ((-1.926394e+00 -3.858812e+02 -1.126897e+00) (1.652407e-02 -1.211284e+00 -1.572694e-03))
0.00253714    	((-3.740243e+01 3.439921e+03 2.479616e-01) (-2.438384e-01 -1.719785e+01 1.267432e-01)) ((-1.953904e+00 -3.858771e+02 -1.153044e+00) (1.693306e-02 -1.210399e+00 -1.562052e-03))
0.00255429    	((-3.750029e+01 3.441550e+03 -6.105164e-01) (-2.477610e-01 -1.719466e+01 1.303879e-01)) ((-1.967721e+00 -3.858824e+02 -1.175884e+00) (1.735050e-02 -1.209559e+00 -1.561865e-03))
0.00257143    	((-3.752272e+01 3.443702e+03 -1.322737e+00) (-2.518593e-01 -1.719172e+01 1.336511e-01)) ((-1.979915e+00 -3.859175e+02 -1.201893e+00) (1.778426e-02 -1.208773e+00 -1.573057e-03))
0.00258857    	((-3.762287e+01 3.446333e+03 -1.862371e+00) (-2.560029e-01 -1.718894e+01 1.366620e-01)) ((-1.987801e+00 -3.859784e+02 -1.228200e+00) (1.823620e-02 -1.208034e+00 -1.591630e-03))
0.00260571    	((-3.766134e+01 3.449369e+03 -2.233833e+00) (-2.601171e-01 -1.718651e+01 1.396095e-01)) ((-1.991256e+00 -3.860672e+02 -1.244009e+00) (1.871554e-02 -1.207337e+00 -1.602866e-03))
0.00262286    	((-3.771622e+01 3.452670e+03 -2.651673e+00) (-2.641096e-01 -1.718444e+01 1.424078e-01)) ((-1.987853e+00 -3.861777e+02 -1.260150e+00) (1.921436e-02 -1.206689e+00 -1.609588e-03))
0.00264       	((-3.779500e+01 3.455972e+03 -3.049571e+00) (-2.682361e-01 -1.718244e+01 1.451690e-01)) ((-1.985828e+00 -3.863022e+02 -1.279247e+00) (1.973803e-02 -1.206091e+00 -1.606710e-03))
0.00265714    	((-3.823071e+01 3.459021e+03 -3.746357e+00) (-2.734225e-01 -1.718150e+01 1.482117e-01)) ((-2.002086e+00 -3.864094e+02 -1.304866e+00) (2.020468e-02 -1.205404e+00 -1.621114e-03))