# Forces      
# CofR        : (0.000000e+00 0.000000e+00 0.000000e+00)
# Time        forces(pressure viscous)	moments(pressure viscous)
0             	((0.000000e+00 0.000000e+00 0.000000e+00) (0.000000e+00 0.000000e+00 0.000000e+00)) ((0.000000e+00 0.000000e+00 0.000000e+00) (0.000000e+00 0.000000e+00 0.000000e+00))
1.19048e-05   	((-2.719875e-01 7.046271e+02 7.778923e-02) (-1.125128e-06 -3.137270e-03 -1.106222e-07)) ((2.830334e-02 -3.368233e+00 2.581579e-02) (5.522976e-08 -3.943585e-04 1.945550e-07))
2.58503e-05   	((8.793543e-02 1.071185e+01 -1.758851e-02) (-3.479469e-07 -3.283979e-03 -7.606990e-08)) ((-2.171109e-03 -4.391470e-01 -5.860981e-04) (3.443204e-08 -3.918309e-04 1.642249e-07))
4.22003e-05   	((-9.970635e-03 2.763424e+00 3.130098e-03) (-3.002755e-07 -3.384698e-03 -1.468283e-08)) ((1.350232e-03 -1.193913e-01 2.258135e-03) (4.185457e-08 -3.948054e-04 1.757523e-07))
6.12753e-05   	((5.808234e-03 1.749838e+00 -4.029414e-03) (-1.736744e-07 -3.489603e-03 -3.515415e-08)) ((3.307233e-04 -8.428846e-02 -4.904632e-04) (4.508409e-08 -4.020524e-04 1.751882e-07))
8.32115e-05   	((5.751356e-03 1.417689e+00 -9.884521e-04) (-1.936897e-08 -3.607133e-03 -5.881992e-08)) ((5.762131e-04 -7.286790e-02 -3.523662e-04) (4.853329e-08 -4.123575e-04 1.758021e-07))
0.000109261   	((2.194192e-03 1.166344e+00 -6.368505e-04) (7.235683e-08 -3.731600e-03 -3.530804e-08)) ((3.696048e-04 -6.113030e-02 7.927660e-05) (5.142110e-08 -4.229364e-04 1.750524e-07))
0.000139318   	((1.379864e-03 9.683844e-01 4.718404e-04) (9.731311e-08 -3.855093e-03 1.975453e-08)) ((4.024100e-04 -5.076324e-02 1.703423e-04) (5.465045e-08 -4.325407e-04 1.723095e-07))
0.000175386   	((8.638573e-04 8.206138e-01 6.350742e-04) (1.088917e-07 -3.983046e-03 7.500705e-08)) ((3.050183e-04 -4.258968e-02 2.002635e-04) (5.729493e-08 -4.419684e-04 1.671992e-07))
0.000215963   	((4.357211e-04 7.217321e-01 6.708489e-04) (1.183876e-07 -4.107882e-03 1.287057e-07)) ((2.492906e-04 -3.711104e-02 2.184678e-04) (5.924223e-08 -4.509022e-04 1.619445e-07))
0.000263302   	((3.790501e-04 6.506497e-01 6.815380e-04) (1.253801e-07 -4.234106e-03 2.020565e-07)) ((2.149886e-04 -3.310887e-02 2.003282e-04) (6.044434e-08 -4.599670e-04 1.555144e-07))
0.000310642   	((1.584324e-04 6.037897e-01 5.813095e-04) (1.361556e-07 -4.344635e-03 2.730906e-07)) ((1.671138e-04 -3.052603e-02 2.059018e-04) (6.068923e-08 -4.677992e-04 1.487598e-07))
0.000357981   	((3.289441e-04 5.699992e-01 6.578658e-04) (1.648946e-07 -4.442142e-03 3.136383e-07)) ((1.614138e-04 -2.866409e-02 1.745844e-04) (6.174496e-08 -4.747804e-04 1.421983e-07))
0.000405321   	((8.096201e-04 5.474451e-01 6.955170e-04) (1.945120e-07 -4.528589e-03 3.333843e-07)) ((1.652918e-04 -2.740185e-02 1.415821e-04) (6.292876e-08 -4.811587e-04 1.374083e-07))
0.00045266    	((6.036341e-04 5.319667e-01 5.544402e-04) (2.222834e-07 -4.605924e-03 3.471981e-07)) ((1.521463e-04 -2.650668e-02 1.544452e-04) (6.405951e-08 -4.870895e-04 1.336976e-07))
0.0005        	((5.937492e-04 5.219722e-01 7.050253e-04) (2.655612e-07 -4.675134e-03 3.506684e-07)) ((1.367399e-04 -2.591641e-02 1.528590e-04) (6.408854e-08 -4.926631e-04 1.301018e-07))
0.000555556   	((5.701399e-04 5.137127e-01 6.155462e-04) (3.130985e-07 -4.747268e-03 3.339277e-07)) ((1.108027e-04 -2.531335e-02 1.347664e-04) (6.540837e-08 -4.988861e-04 1.264274e-07))
0.000619048   	((5.546780e-04 5.100773e-01 6.535335e-04) (3.622146e-07 -4.819364e-03 3.066828e-07)) ((1.101491e-04 -2.499426e-02 1.244598e-04) (6.745274e-08 -5.055077e-04 1.206857e-07))
0.000695238   	((5.678213e-04 5.076438e-01 5.934150e-04) (4.205797e-07 -4.894632e-03 2.677618e-07)) ((9.158061e-05 -2.472334e-02 1.033914e-04) (6.822361e-08 -5.127679e-04 1.147783e-07))
0.000771429   	((5.815032e-04 5.080836e-01 5.043052e-04) (4.722863e-07 -4.959077e-03 2.401207e-07)) ((6.013450e-05 -2.471423e-02 9.006501e-05) (6.828196e-08 -5.192068e-04 1.095538e-07))
0.000847619   	((3.206250e-04 5.088671e-01 5.066813e-04) (5.116812e-07 -5.014863e-03 2.047159e-07)) ((6.889173e-05 -2.470628e-02 1.346195e-04) (6.737155e-08 -5.248458e-04 1.056771e-07))
0.00092381    	((4.146324e-04 5.097301e-01 3.864993e-04) (5.538823e-07 -5.063622e-03 1.576455e-07)) ((4.664012e-05 -2.471368e-02 1.158077e-04) (6.487978e-08 -5.297258e-04 1.011907e-07))
0.001         	((3.715321e-04 5.108903e-01 4.690841e-04) (5.801585e-07 -5.106540e-03 1.044862e-07)) ((4.688277e-05 -2.473526e-02 1.138043e-04) (6.105649e-08 -5.339031e-04 9.794294e-08))
0.00108333    	((5.754300e-04 5.117605e-01 5.392636e-04) (6.098381e-07 -5.148014e-03 5.305063e-08)) ((6.503943e-05 -2.470172e-02 8.429177e-05) (5.654424e-08 -5.377497e-04 9.418172e-08))
0.00116667    	((6.264643e-04 5.136410e-01 6.049550e-04) (6.284735e-07 -5.184465e-03 1.488838e-08)) ((7.318575e-05 -2.478667e-02 6.915134e-05) (5.305781e-08 -5.409048e-04 9.071980e-08))
0.00125       	((6.261284e-04 5.145851e-01 5.723109e-04) (6.420992e-07 -5.216772e-03 -1.479638e-08)) ((6.304740e-05 -2.482582e-02 6.752127e-05) (4.997535e-08 -5.434372e-04 8.737112e-08))
0.00133333    	((7.169399e-04 5.152318e-01 5.880515e-04) (6.565360e-07 -5.245465e-03 -3.045441e-08)) ((6.671127e-05 -2.485659e-02 5.722699e-05) (4.773340e-08 -5.454153e-04 8.337952e-08))
0.00141667    	((7.125367e-04 5.155568e-01 5.970985e-04) (6.749933e-07 -5.271011e-03 -5.140410e-08)) ((7.237835e-05 -2.487121e-02 5.092523e-05) (4.500068e-08 -5.469090e-04 7.905142e-08))
0.0015        	((7.516892e-04 5.158334e-01 4.213282e-04) (7.055344e-07 -5.293846e-03 -7.889319e-08)) ((6.542315e-05 -2.488889e-02 5.188849e-05) (4.237965e-08 -5.479926e-04 7.508968e-08))
0.00158333    	((4.304734e-04 5.160231e-01 5.303214e-04) (7.043103e-07 -5.313956e-03 -8.407965e-08)) ((5.029755e-05 -2.490652e-02 7.143727e-05) (4.004086e-08 -5.487098e-04 7.349986e-08))
0.00166667    	((5.995671e-04 5.160037e-01 5.158479e-04) (7.190797e-07 -5.331741e-03 -9.559472e-08)) ((6.470450e-05 -2.491673e-02 5.605566e-05) (3.745800e-08 -5.491286e-04 7.157935e-08))
0.00175       	((7.037153e-04 5.155715e-01 5.326928e-04) (7.328464e-07 -5.347390e-03 -1.129952e-07)) ((6.166353e-05 -2.491498e-02 5.589424e-05) (3.500287e-08 -5.493028e-04 6.932474e-08))
0.00183333    	((7.461272e-04 5.151376e-01 4.197663e-04) (7.428991e-07 -5.361158e-03 -1.434028e-07)) ((5.644911e-05 -2.491396e-02 5.073132e-05) (3.236265e-08 -5.492770e-04 6.793686e-08))
0.00191667    	((6.031057e-04 5.147051e-01 3.678120e-04) (7.384146e-07 -5.373208e-03 -1.622201e-07)) ((3.791138e-05 -2.490880e-02 5.552688e-05) (3.025437e-08 -5.490898e-04 6.680244e-08))
0.002         	((7.103309e-04 5.143896e-01 4.659900e-04) (7.521218e-07 -5.383795e-03 -1.931649e-07)) ((4.880828e-05 -2.491029e-02 4.483698e-05) (2.835419e-08 -5.487814e-04 6.566196e-08))
0.00208333    	((7.023148e-04 5.139272e-01 4.324056e-04) (7.667414e-07 -5.393162e-03 -2.259305e-07)) ((5.351220e-05 -2.490861e-02 4.446627e-05) (2.585257e-08 -5.483935e-04 6.409151e-08))
0.00216667    	((7.260918e-04 5.132703e-01 4.390236e-04) (7.839585e-07 -5.401514e-03 -2.571776e-07)) ((4.853905e-05 -2.489908e-02 3.913812e-05) (2.324141e-08 -5.479548e-04 6.273355e-08))
0.00225       	((8.007198e-04 5.125898e-01 5.152186e-04) (8.037222e-07 -5.408991e-03 -2.833858e-07)) ((5.395609e-05 -2.489163e-02 3.913533e-05) (2.109010e-08 -5.475008e-04 6.096633e-08))
0.00233333    	((9.944108e-04 5.123102e-01 4.373477e-04) (8.222495e-07 -5.415700e-03 -3.502674e-07)) ((9.422976e-05 -2.489537e-02 4.089882e-05) (1.928920e-08 -5.470558e-04 5.964542e-08))
0.00241667    	((5.137374e-04 5.112052e-01 5.360468e-04) (8.196024e-07 -5.421862e-03 -3.386796e-07)) ((1.516717e-05 -2.487083e-02 3.691328e-05) (1.579882e-08 -5.466431e-04 5.793348e-08))
0.0025        	((8.266094e-04 5.099961e-01 2.353292e-04) (8.445945e-07 -5.427593e-03 -3.698139e-07)) ((2.905322e-05 -2.484591e-02 2.057639e-05) (1.262849e-08 -5.462749e-04 5.573759e-08))
0.00258333    	((8.953916e-04 5.090716e-01 3.864181e-04) (8.637158e-07 -5.433002e-03 -3.988183e-07)) ((3.719576e-05 -2.482773e-02 1.913024e-05) (9.703240e-09 -5.459629e-04 5.373841e-08))
0.00266667    	((8.249075e-04 5.080732e-01 3.531619e-04) (8.802331e-07 -5.438151e-03 -4.399964e-07)) ((3.851372e-05 -2.480602e-02 2.733178e-05) (7.046202e-09 -5.457199e-04 5.237978e-08))
0.00275       	((8.462367e-04 5.072158e-01 3.262951e-04) (8.931424e-07 -5.443157e-03 -4.859374e-07)) ((3.700396e-05 -2.479410e-02 2.075216e-05) (4.625782e-09 -5.455501e-04 5.093727e-08))
0.00283333    	((9.296764e-04 5.063172e-01 3.688554e-04) (9.137710e-07 -5.448099e-03 -5.246592e-07)) ((3.970847e-05 -2.478060e-02 1.543600e-05) (2.483609e-09 -5.454546e-04 4.969138e-08))
0.00291667    	((8.948811e-04 5.050984e-01 3.422227e-04) (9.423422e-07 -5.453052e-03 -5.672437e-07)) ((3.879719e-05 -2.475321e-02 2.445855e-06) (4.246440e-10 -5.454325e-04 4.794607e-08))
0.003         	((8.948434e-04 5.037835e-01 4.050236e-04) (9.748665e-07 -5.457964e-03 -6.077987e-07)) ((4.845572e-05 -2.471984e-02 7.634053e-06) (-1.179925e-09 -5.454853e-04 4.637538e-08))
0.00308333    	((8.635385e-04 5.025520e-01 4.610552e-04) (9.977157e-07 -5.462860e-03 -6.575905e-07)) ((5.417815e-05 -2.468639e-02 1.783904e-05) (-2.675008e-09 -5.456068e-04 4.551437e-08))
0.00316667    	((8.315488e-04 5.013173e-01 4.730847e-04) (1.022251e-06 -5.467836e-03 -6.958289e-07)) ((5.576819e-05 -2.465283e-02 1.766806e-05) (-4.493221e-09 -5.457941e-04 4.455084e-08))
0.00325       	((7.833392e-04 5.000952e-01 4.119484e-04) (1.042631e-06 -5.472833e-03 -7.312791e-07)) ((4.281638e-05 -2.462326e-02 2.481839e-05) (-6.180030e-09 -5.460442e-04 4.380795e-08))
0.00333333    	((7.575997e-04 4.988301e-01 3.331739e-04) (1.064250e-06 -5.477812e-03 -7.584868e-07)) ((3.642484e-05 -2.458920e-02 2.685975e-05) (-7.665430e-09 -5.463528e-04 4.305922e-08))
0.00341667    	((7.942676e-04 4.972639e-01 3.163747e-04) (1.092547e-06 -5.482905e-03 -7.918331e-07)) ((4.153651e-05 -2.454568e-02 2.444944e-05) (-9.157528e-09 -5.467050e-04 4.208795e-08))
0.0035        	((7.479535e-04 4.957970e-01 3.294700e-04) (1.122405e-06 -5.487916e-03 -8.194955e-07)) ((3.338699e-05 -2.449922e-02 1.945329e-05) (-1.063703e-08 -5.470910e-04 4.093509e-08))
0.00358333    	((7.549091e-04 4.945050e-01 3.018024e-04) (1.150942e-06 -5.492886e-03 -8.516207e-07)) ((4.192236e-05 -2.446410e-02 9.878298e-06) (-1.215668e-08 -5.475079e-04 3.951608e-08))
0.00366667    	((8.094165e-04 4.928364e-01 3.886815e-04) (1.188059e-06 -5.497890e-03 -8.788617e-07)) ((4.312730e-05 -2.441444e-02 2.678609e-05) (-1.340558e-08 -5.479526e-04 3.831896e-08))
0.00375       	((7.625731e-04 4.908919e-01 3.482616e-04) (1.218316e-06 -5.502948e-03 -9.087339e-07)) ((4.227062e-05 -2.435114e-02 2.078630e-05) (-1.437374e-08 -5.484083e-04 3.712262e-08))
0.00383333    	((7.414568e-04 4.895339e-01 4.112651e-04) (1.270797e-06 -5.508036e-03 -9.290923e-07)) ((3.592874e-05 -2.430827e-02 4.929432e-05) (-1.569966e-08 -5.488639e-04 3.634405e-08))
0.00391667    	((7.264475e-04 4.879760e-01 2.665715e-04) (1.278937e-06 -5.512995e-03 -9.617746e-07)) ((5.015643e-05 -2.425540e-02 -3.341640e-06) (-1.661786e-08 -5.493198e-04 3.489721e-08))
0.004         	((7.725053e-04 4.867427e-01 3.159218e-04) (1.309605e-06 -5.517851e-03 -9.848815e-07)) ((4.195929e-05 -2.422359e-02 2.084905e-05) (-1.784211e-08 -5.497741e-04 3.405735e-08))
0.00408333    	((7.131941e-04 4.853529e-01 3.147970e-04) (1.334079e-06 -5.522609e-03 -1.012506e-06)) ((4.806501e-05 -2.418128e-02 1.802402e-05) (-1.876943e-08 -5.502220e-04 3.299060e-08))
0.00416667    	((7.641140e-04 4.834920e-01 2.971545e-04) (1.358558e-06 -5.527274e-03 -1.035025e-06)) ((4.378300e-05 -2.412053e-02 1.541149e-05) (-1.976116e-08 -5.506632e-04 3.213501e-08))
0.00425       	((1.064406e-03 4.822425e-01 1.997287e-04) (1.515469e-06 -5.531794e-03 -1.012531e-06)) ((5.056468e-05 -2.407904e-02 -1.300773e-05) (-2.057077e-08 -5.510877e-04 3.096704e-08))
0.00433333    	((5.317710e-04 4.804247e-01 2.517016e-04) (1.438221e-06 -5.536133e-03 -1.081952e-06)) ((3.593887e-05 -2.402404e-02 2.799604e-05) (-2.186028e-08 -5.515088e-04 2.995815e-08))
0.00441667    	((8.084586e-04 4.789047e-01 2.759136e-04) (1.489836e-06 -5.540283e-03 -1.111811e-06)) ((4.456462e-05 -2.397354e-02 1.884300e-05) (-2.307221e-08 -5.519142e-04 2.928603e-08))
0.0045        	((7.173249e-04 4.773177e-01 2.488200e-04) (1.530509e-06 -5.544380e-03 -1.116404e-06)) ((3.646883e-05 -2.392055e-02 1.584509e-05) (-2.462882e-08 -5.522964e-04 2.871476e-08))
0.00458333    	((7.436130e-04 4.756593e-01 2.534403e-04) (1.565946e-06 -5.548223e-03 -1.138158e-06)) ((4.162763e-05 -2.386169e-02 1.762195e-05) (-2.622752e-08 -5.526646e-04 2.833571e-08))
0.00466667    	((7.423189e-04 4.741104e-01 2.216493e-04) (1.591164e-06 -5.551826e-03 -1.156634e-06)) ((3.963162e-05 -2.381298e-02 1.642363e-05) (-2.767982e-08 -5.530270e-04 2.809804e-08))
0.00475       	((7.704464e-04 4.721774e-01 2.060247e-04) (1.619902e-06 -5.555127e-03 -1.181190e-06)) ((3.842456e-05 -2.374524e-02 1.606816e-05) (-2.911102e-08 -5.533803e-04 2.787280e-08))
0.00483333    	((8.041582e-04 4.700747e-01 1.668368e-04) (1.651472e-06 -5.558208e-03 -1.209322e-06)) ((3.887738e-05 -2.366476e-02 1.175750e-05) (-3.055111e-08 -5.537161e-04 2.741250e-08))
0.00491667    	((7.819557e-04 4.684688e-01 2.671407e-04) (1.675243e-06 -5.561005e-03 -1.229645e-06)) ((4.351681e-05 -2.360454e-02 1.676515e-05) (-3.201052e-08 -5.540376e-04 2.732240e-08))
0.005         	((7.515336e-04 4.669136e-01 2.251310e-04) (1.694505e-06 -5.563565e-03 -1.253970e-06)) ((4.000932e-05 -2.355551e-02 1.642299e-05) (-3.349766e-08 -5.543473e-04 2.745364e-08))
0.00508333    	((7.744279e-04 4.654001e-01 1.918796e-04) (1.711783e-06 -5.565981e-03 -1.277604e-06)) ((4.125132e-05 -2.350517e-02 1.355251e-05) (-3.486330e-08 -5.546351e-04 2.746065e-08))
0.00516667    	((7.744360e-04 4.636696e-01 2.244073e-04) (1.725863e-06 -5.568185e-03 -1.296737e-06)) ((4.136637e-05 -2.344210e-02 1.779743e-05) (-3.631018e-08 -5.548983e-04 2.752696e-08))
0.00525       	((7.554877e-04 4.623993e-01 2.252505e-04) (1.743319e-06 -5.570159e-03 -1.318999e-06)) ((3.977502e-05 -2.339964e-02 1.820607e-05) (-3.790826e-08 -5.551371e-04 2.763081e-08))
0.00533333    	((7.632466e-04 4.610741e-01 2.194785e-04) (1.760791e-06 -5.571918e-03 -1.328420e-06)) ((4.373025e-05 -2.335462e-02 1.918321e-05) (-3.903819e-08 -5.553533e-04 2.774329e-08))
0.00541667    	((7.327159e-04 4.596806e-01 2.107667e-04) (1.777314e-06 -5.573425e-03 -1.340182e-06)) ((4.054835e-05 -2.330491e-02 1.870992e-05) (-4.016247e-08 -5.555477e-04 2.766297e-08))
0.0055        	((7.353825e-04 4.577549e-01 2.210873e-04) (1.794048e-06 -5.574736e-03 -1.347453e-06)) ((4.065965e-05 -2.322994e-02 2.102794e-05) (-4.098202e-08 -5.557190e-04 2.758862e-08))
0.00558333    	((7.356579e-04 4.562147e-01 2.064889e-04) (1.805737e-06 -5.575840e-03 -1.356278e-06)) ((4.052844e-05 -2.316985e-02 1.753223e-05) (-4.180408e-08 -5.558675e-04 2.746290e-08))
0.00566667    	((7.330972e-04 4.548290e-01 2.259584e-04) (1.816170e-06 -5.576745e-03 -1.361043e-06)) ((4.198069e-05 -2.311933e-02 1.839475e-05) (-4.240915e-08 -5.559935e-04 2.737993e-08))
0.00575       	((7.757967e-04 4.534601e-01 1.770048e-04) (1.829876e-06 -5.577414e-03 -1.369150e-06)) ((4.565832e-05 -2.306775e-02 1.234548e-05) (-4.318916e-08 -5.560955e-04 2.742564e-08))
0.00583333    	((7.838343e-04 4.518088e-01 1.760000e-04) (1.841022e-06 -5.577834e-03 -1.388981e-06)) ((4.164661e-05 -2.300322e-02 1.381884e-05) (-4.482822e-08 -5.561711e-04 2.736618e-08))
0.00591667    	((8.662461e-04 4.507959e-01 3.201639e-04) (1.859212e-06 -5.577913e-03 -1.391522e-06)) ((5.318228e-05 -2.296697e-02 1.511354e-05) (-4.570962e-08 -5.562286e-04 2.706358e-08))
0.006         	((6.761191e-04 4.494267e-01 1.265924e-04) (1.872599e-06 -5.577726e-03 -1.410048e-06)) ((3.385807e-05 -2.291880e-02 2.027193e-05) (-4.686172e-08 -5.562792e-04 2.721820e-08))
0.00608333    	((7.906358e-04 4.480245e-01 2.590554e-04) (1.887911e-06 -5.577199e-03 -1.410381e-06)) ((4.742021e-05 -2.286591e-02 1.619873e-05) (-4.792966e-08 -5.563246e-04 2.729335e-08))
0.00616667    	((7.857893e-04 4.464034e-01 1.865753e-04) (1.908731e-06 -5.576439e-03 -1.426135e-06)) ((4.197030e-05 -2.280355e-02 1.257331e-05) (-4.934198e-08 -5.563507e-04 2.709812e-08))
0.00625       	((7.784196e-04 4.451785e-01 2.505551e-04) (1.915728e-06 -5.575436e-03 -1.436984e-06)) ((4.578539e-05 -2.275812e-02 1.493864e-05) (-4.980105e-08 -5.563577e-04 2.781104e-08))
0.00633333    	((7.842026e-04 4.439160e-01 2.368386e-04) (1.914199e-06 -5.574178e-03 -1.455121e-06)) ((4.390514e-05 -2.271156e-02 1.396854e-05) (-5.059608e-08 -5.563486e-04 2.842421e-08))
0.00641667    	((8.344639e-04 4.425706e-01 2.523090e-04) (1.915184e-06 -5.572722e-03 -1.469231e-06)) ((4.611061e-05 -2.266025e-02 1.346521e-05) (-5.164663e-08 -5.563165e-04 2.838974e-08))
0.0065        	((8.401882e-04 4.412604e-01 2.922109e-04) (1.909134e-06 -5.571069e-03 -1.477010e-06)) ((4.642877e-05 -2.260848e-02 1.515590e-05) (-5.259515e-08 -5.562652e-04 2.822705e-08))
0.00658333    	((7.809534e-04 4.402254e-01 2.723053e-04) (1.905508e-06 -5.569221e-03 -1.475746e-06)) ((4.604496e-05 -2.257065e-02 1.726111e-05) (-5.337345e-08 -5.561961e-04 2.796464e-08))
0.00666667    	((7.761130e-04 4.392226e-01 2.664983e-04) (1.911731e-06 -5.567119e-03 -1.493742e-06)) ((4.556966e-05 -2.253558e-02 1.988674e-05) (-5.438774e-08 -5.561071e-04 2.756021e-08))
0.00675       	((8.375080e-04 4.379522e-01 2.877789e-04) (1.922156e-06 -5.564783e-03 -1.497992e-06)) ((4.883217e-05 -2.248688e-02 1.676507e-05) (-5.490671e-08 -5.560012e-04 2.717819e-08))
0.00683333    	((7.963589e-04 4.368198e-01 2.463354e-04) (1.933499e-06 -5.562220e-03 -1.512364e-06)) ((4.796617e-05 -2.244189e-02 1.950349e-05) (-5.548744e-08 -5.558715e-04 2.703949e-08))
0.00691667    	((9.809829e-04 4.362201e-01 3.896479e-04) (1.938261e-06 -5.559511e-03 -1.521659e-06)) ((8.869992e-05 -2.242043e-02 8.346781e-06) (-5.505714e-08 -5.557184e-04 2.656132e-08))
0.007         	((6.525654e-04 4.351430e-01 1.662172e-04) (1.950014e-06 -5.556675e-03 -1.534070e-06)) ((2.903004e-05 -2.238290e-02 2.913465e-05) (-5.642152e-08 -5.555395e-04 2.646158e-08))
0.00708333    	((8.509819e-04 4.339861e-01 2.386822e-04) (1.972042e-06 -5.553675e-03 -1.529370e-06)) ((4.250663e-05 -2.233680e-02 2.281097e-05) (-5.744417e-08 -5.553371e-04 2.583634e-08))
0.00716667    	((8.164769e-04 4.328278e-01 2.155393e-04) (1.987061e-06 -5.550553e-03 -1.524339e-06)) ((4.266205e-05 -2.229232e-02 2.421480e-05) (-5.838744e-08 -5.551078e-04 2.525452e-08))
0.00725       	((8.304991e-04 4.319699e-01 2.103996e-04) (2.005821e-06 -5.547285e-03 -1.519580e-06)) ((5.071421e-05 -2.226244e-02 1.888393e-05) (-5.924048e-08 -5.548530e-04 2.443630e-08))
0.00733333    	((8.376778e-04 4.311886e-01 2.433059e-04) (2.024227e-06 -5.543850e-03 -1.512791e-06)) ((5.258404e-05 -2.223531e-02 1.912714e-05) (-6.005486e-08 -5.545728e-04 2.354497e-08))
0.00741667    	((8.320073e-04 4.300132e-01 1.651340e-04) (2.036651e-06 -5.540302e-03 -1.510813e-06)) ((4.722065e-05 -2.219082e-02 1.886815e-05) (-6.106649e-08 -5.542680e-04 2.229312e-08))
0.0075        	((8.768351e-04 4.292453e-01 2.011245e-04) (2.046767e-06 -5.536662e-03 -1.506248e-06)) ((5.159658e-05 -2.216104e-02 1.984853e-05) (-6.176412e-08 -5.539394e-04 2.107579e-08))
0.00758333    	((8.543498e-04 4.284733e-01 1.768537e-04) (2.040800e-06 -5.532858e-03 -1.516042e-06)) ((6.683740e-05 -2.213300e-02 1.098871e-05) (-6.190363e-08 -5.535983e-04 1.992786e-08))
0.00766667    	((8.276606e-04 4.274673e-01 1.226454e-04) (2.065560e-06 -5.529045e-03 -1.499590e-06)) ((2.862798e-05 -2.209510e-02 2.586651e-05) (-6.294519e-08 -5.532366e-04 1.900989e-08))
0.00775       	((9.475693e-04 4.262598e-01 1.501023e-04) (2.086275e-06 -5.525140e-03 -1.486669e-06)) ((5.495556e-05 -2.204925e-02 1.510359e-05) (-6.321904e-08 -5.528546e-04 1.806430e-08))
0.00783333    	((8.577385e-04 4.254738e-01 1.360523e-04) (2.106022e-06 -5.521135e-03 -1.476114e-06)) ((5.146012e-05 -2.201746e-02 2.001398e-05) (-6.347268e-08 -5.524536e-04 1.738566e-08))
0.00791667    	((8.553173e-04 4.248504e-01 1.305519e-04) (2.132998e-06 -5.517103e-03 -1.464734e-06)) ((4.949631e-05 -2.199636e-02 2.024891e-05) (-6.388433e-08 -5.520319e-04 1.666767e-08))
0.008         	((8.727025e-04 4.243990e-01 1.473876e-04) (2.158950e-06 -5.513032e-03 -1.452938e-06)) ((5.122434e-05 -2.198147e-02 2.024746e-05) (-6.412479e-08 -5.515918e-04 1.598731e-08))
0.00808333    	((9.166273e-04 4.236822e-01 1.317632e-04) (2.196747e-06 -5.508950e-03 -1.438876e-06)) ((5.255706e-05 -2.195507e-02 1.625331e-05) (-6.464266e-08 -5.511296e-04 1.497943e-08))
0.00816667    	((9.216778e-04 4.227785e-01 1.513180e-04) (2.237670e-06 -5.504835e-03 -1.427984e-06)) ((5.391370e-05 -2.191966e-02 1.696430e-05) (-6.502651e-08 -5.506460e-04 1.418260e-08))
0.00825       	((8.985675e-04 4.220670e-01 1.480853e-04) (2.277363e-06 -5.500656e-03 -1.422647e-06)) ((5.559820e-05 -2.189570e-02 1.907911e-05) (-6.576342e-08 -5.501464e-04 1.344752e-08))
0.00833333    	((1.123243e-03 4.209236e-01 4.314956e-04) (2.490703e-06 -5.496475e-03 -1.303564e-06)) ((4.437911e-05 -2.186357e-02 3.127514e-05) (-6.682054e-08 -5.496429e-04 1.192337e-08))
0.00841667    	((6.979922e-04 4.201288e-01 -1.093964e-04) (2.350258e-06 -5.492231e-03 -1.404175e-06)) ((6.743914e-05 -2.181867e-02 1.006079e-05) (-6.714919e-08 -5.491185e-04 1.180865e-08))
0.0085        	((8.965581e-04 4.188683e-01 1.526545e-04) (2.397718e-06 -5.488006e-03 -1.384149e-06)) ((6.274775e-05 -2.177527e-02 1.542104e-05) (-6.755522e-08 -5.485895e-04 1.035697e-08))
0.00858333    	((8.991032e-04 4.185236e-01 1.657955e-04) (2.439917e-06 -5.483769e-03 -1.363169e-06)) ((6.036756e-05 -2.177101e-02 1.911079e-05) (-6.771679e-08 -5.480557e-04 9.009277e-09))
0.00866667    	((8.941893e-04 4.181675e-01 1.363068e-04) (2.487488e-06 -5.479526e-03 -1.351934e-06)) ((5.967905e-05 -2.176399e-02 1.584882e-05) (-6.804953e-08 -5.475173e-04 7.527070e-09))
0.00875       	((8.959435e-04 4.174545e-01 1.547872e-04) (2.533825e-06 -5.475281e-03 -1.340169e-06)) ((6.184001e-05 -2.174067e-02 1.571736e-05) (-6.843698e-08 -5.469768e-04 5.755811e-09))
0.00883333    	((8.974451e-04 4.167219e-01 1.144824e-04) (2.583549e-06 -5.471028e-03 -1.325484e-06)) ((6.075086e-05 -2.171500e-02 1.565538e-05) (-6.896308e-08 -5.464344e-04 4.085120e-09))
0.00891667    	((9.200947e-04 4.158758e-01 9.643161e-05) (2.637820e-06 -5.466817e-03 -1.310195e-06)) ((6.040676e-05 -2.168759e-02 1.369221e-05) (-6.953640e-08 -5.458873e-04 2.411009e-09))
0.009         	((9.262560e-04 4.155046e-01 1.027377e-04) (2.695571e-06 -5.462690e-03 -1.290835e-06)) ((6.097859e-05 -2.167903e-02 1.544187e-05) (-7.032476e-08 -5.453379e-04 4.070979e-10))
0.00908333    	((9.102386e-04 4.150594e-01 1.103177e-04) (2.762600e-06 -5.458621e-03 -1.267588e-06)) ((6.140094e-05 -2.166543e-02 1.658353e-05) (-7.112986e-08 -5.447840e-04 -1.753621e-09))
0.00916667    	((9.159268e-04 4.146983e-01 1.066005e-04) (2.828261e-06 -5.454569e-03 -1.238952e-06)) ((6.521803e-05 -2.165393e-02 1.439501e-05) (-7.203810e-08 -5.442286e-04 -4.203042e-09))
0.00925       	((9.208634e-04 4.142814e-01 9.207941e-05) (2.903286e-06 -5.450556e-03 -1.212124e-06)) ((6.233012e-05 -2.164334e-02 1.491005e-05) (-7.306794e-08 -5.436752e-04 -6.814126e-09))
0.00933333    	((9.391449e-04 4.135717e-01 7.122626e-05) (2.978580e-06 -5.446604e-03 -1.171757e-06)) ((6.325637e-05 -2.162342e-02 1.361736e-05) (-7.420548e-08 -5.431241e-04 -9.474278e-09))
0.00941667    	((9.497195e-04 4.127895e-01 5.281013e-05) (3.057722e-06 -5.442725e-03 -1.128486e-06)) ((6.346000e-05 -2.159812e-02 1.378158e-05) (-7.538664e-08 -5.425742e-04 -1.222681e-08))
0.0095        	((9.566309e-04 4.118545e-01 4.691991e-05) (3.134772e-06 -5.438974e-03 -1.087783e-06)) ((6.489219e-05 -2.156466e-02 1.411804e-05) (-7.668954e-08 -5.420230e-04 -1.512979e-08))
0.00958333    	((9.214090e-04 4.113505e-01 5.236499e-05) (3.212286e-06 -5.435294e-03 -1.049310e-06)) ((6.453332e-05 -2.155113e-02 1.581191e-05) (-7.824599e-08 -5.414756e-04 -1.815168e-08))
0.00966667    	((9.204508e-04 4.110903e-01 1.976368e-05) (3.297367e-06 -5.431689e-03 -1.014598e-06)) ((6.355952e-05 -2.154988e-02 1.433135e-05) (-8.009322e-08 -5.409392e-04 -2.144004e-08))
0.00975       	((9.167048e-04 4.106790e-01 9.010737e-06) (3.385001e-06 -5.428188e-03 -9.820164e-07)) ((6.416227e-05 -2.154357e-02 1.415649e-05) (-8.208694e-08 -5.404107e-04 -2.478949e-08))
0.00983333    	((9.307774e-04 4.104040e-01 7.600371e-06) (3.477023e-06 -5.424818e-03 -9.511143e-07)) ((6.454505e-05 -2.153677e-02 1.555326e-05) (-8.407238e-08 -5.398870e-04 -2.802902e-08))
0.00991667    	((9.456762e-04 4.103185e-01 -2.096345e-05) (3.570069e-06 -5.421600e-03 -9.191698e-07)) ((6.765769e-05 -2.154098e-02 1.436577e-05) (-8.603920e-08 -5.393699e-04 -3.103187e-08))
0.01          	((9.519627e-04 4.102502e-01 -7.600747e-07) (3.657660e-06 -5.418468e-03 -8.765779e-07)) ((6.597617e-05 -2.154971e-02 1.415306e-05) (-8.710183e-08 -5.388673e-04 -3.419169e-08))
0.0100833     	((9.553438e-04 4.093792e-01 -4.635969e-05) (3.746363e-06 -5.415400e-03 -8.567615e-07)) ((6.766861e-05 -2.152122e-02 1.161038e-05) (-8.966699e-08 -5.383729e-04 -3.719690e-08))
0.0101667     	((9.051711e-04 4.087198e-01 -1.906906e-05) (3.822020e-06 -5.412430e-03 -8.291051e-07)) ((7.152188e-05 -2.150078e-02 8.895989e-06) (-9.172309e-08 -5.378874e-04 -4.023033e-08))
0.01025       	((9.501096e-04 4.083147e-01 -5.596647e-05) (3.914869e-06 -5.409542e-03 -8.046979e-07)) ((6.411509e-05 -2.149345e-02 1.543380e-05) (-9.456848e-08 -5.374165e-04 -4.324339e-08))
0.0103333     	((9.282407e-04 4.081427e-01 -3.815262e-05) (3.995872e-06 -5.406727e-03 -7.786303e-07)) ((6.921026e-05 -2.149575e-02 1.398705e-05) (-9.738169e-08 -5.369609e-04 -4.628349e-08))
0.0104167     	((9.253279e-04 4.080453e-01 -4.110987e-05) (4.078740e-06 -5.404026e-03 -7.577078e-07)) ((6.742742e-05 -2.149890e-02 1.113643e-05) (-1.002065e-07 -5.365192e-04 -4.926969e-08))
0.0105        	((8.984894e-04 4.078269e-01 -8.579982e-05) (4.156877e-06 -5.401418e-03 -7.379361e-07)) ((6.402334e-05 -2.149820e-02 1.128625e-05) (-1.033716e-07 -5.360903e-04 -5.214777e-08))
0.0105833     	((9.188428e-04 4.076512e-01 -1.259619e-04) (4.239273e-06 -5.398884e-03 -7.174765e-07)) ((6.600147e-05 -2.150297e-02 5.503719e-06) (-1.066996e-07 -5.356819e-04 -5.471810e-08))
0.0106667     	((8.919804e-04 4.070983e-01 -1.091046e-04) (4.314022e-06 -5.396468e-03 -7.008201e-07)) ((6.486662e-05 -2.148781e-02 9.873254e-06) (-1.098796e-07 -5.352836e-04 -5.723901e-08))
0.01075       	((9.038938e-04 4.064790e-01 -1.117120e-04) (4.390539e-06 -5.394166e-03 -6.867124e-07)) ((6.585751e-05 -2.146829e-02 1.088231e-05) (-1.130632e-07 -5.348915e-04 -5.948223e-08))
0.0108333     	((8.893826e-04 4.063424e-01 -1.454149e-04) (4.462949e-06 -5.391904e-03 -6.728427e-07)) ((6.550005e-05 -2.147182e-02 7.192290e-06) (-1.162797e-07 -5.345154e-04 -6.169441e-08))
0.0109167     	((8.924289e-04 4.062331e-01 -1.693907e-04) (4.534440e-06 -5.389701e-03 -6.598681e-07)) ((6.428041e-05 -2.147577e-02 6.023887e-06) (-1.195634e-07 -5.341550e-04 -6.388413e-08))
0.011         	((8.841362e-04 4.060931e-01 -2.106076e-04) (4.600379e-06 -5.387631e-03 -6.497063e-07)) ((6.367276e-05 -2.147534e-02 3.125173e-06) (-1.231989e-07 -5.338019e-04 -6.592274e-08))
0.0110833     	((8.837981e-04 4.060231e-01 -1.749405e-04) (4.668250e-06 -5.385720e-03 -6.344704e-07)) ((6.682493e-05 -2.147787e-02 3.971122e-06) (-1.267526e-07 -5.334605e-04 -6.775756e-08))
0.0111667     	((8.704844e-04 4.058242e-01 -1.895729e-04) (4.727994e-06 -5.383906e-03 -6.240615e-07)) ((6.604509e-05 -2.147624e-02 2.626830e-06) (-1.308469e-07 -5.331278e-04 -6.919657e-08))
0.01125       	((8.686189e-04 4.052054e-01 -1.816483e-04) (4.794012e-06 -5.382191e-03 -6.213269e-07)) ((6.679961e-05 -2.145891e-02 2.833694e-06) (-1.354428e-07 -5.328047e-04 -7.114019e-08))
0.0113333     	((8.746329e-04 4.048619e-01 -1.663890e-04) (4.860481e-06 -5.380540e-03 -6.164531e-07)) ((6.843375e-05 -2.145357e-02 2.835038e-06) (-1.400541e-07 -5.324932e-04 -7.251561e-08))
0.0114167     	((8.720548e-04 4.045475e-01 -1.927207e-04) (4.934990e-06 -5.379020e-03 -6.209411e-07)) ((7.026214e-05 -2.144523e-02 4.909757e-07) (-1.446631e-07 -5.321847e-04 -7.404932e-08))
0.0115        	((8.463357e-04 4.043613e-01 -1.996442e-04) (5.005839e-06 -5.377663e-03 -6.323388e-07)) ((6.661668e-05 -2.144289e-02 -2.598310e-06) (-1.490951e-07 -5.318833e-04 -7.521346e-08))
0.0115833     	((8.069817e-04 4.041246e-01 -2.272311e-04) (5.063278e-06 -5.376441e-03 -6.400147e-07)) ((6.605454e-05 -2.143901e-02 -3.829623e-06) (-1.539885e-07 -5.315920e-04 -7.586879e-08))
0.0116667     	((8.185523e-04 4.038647e-01 -2.348580e-04) (5.130712e-06 -5.375331e-03 -6.501320e-07)) ((6.562194e-05 -2.143715e-02 -6.624997e-06) (-1.580040e-07 -5.313120e-04 -7.666194e-08))
0.01175       	((8.237014e-04 4.033232e-01 -2.513064e-04) (5.185879e-06 -5.374369e-03 -6.651990e-07)) ((6.584623e-05 -2.142367e-02 -8.425550e-06) (-1.625307e-07 -5.310349e-04 -7.691902e-08))
0.0118333     	((7.683444e-04 4.027764e-01 -2.641633e-04) (5.241274e-06 -5.373543e-03 -6.842302e-07)) ((6.156741e-05 -2.141092e-02 -4.195546e-06) (-1.671691e-07 -5.307648e-04 -7.714515e-08))
0.0119167     	((8.021013e-04 4.023517e-01 -2.917684e-04) (5.303601e-06 -5.372805e-03 -6.918188e-07)) ((6.259676e-05 -2.139842e-02 -1.047864e-05) (-1.714774e-07 -5.304983e-04 -7.764767e-08))
0.012         	((7.924721e-04 4.020603e-01 -3.621890e-04) (5.359798e-06 -5.372139e-03 -7.181076e-07)) ((5.981867e-05 -2.139387e-02 -1.241211e-05) (-1.759839e-07 -5.302389e-04 -7.760375e-08))
0.0120833     	((7.996508e-04 4.021635e-01 -2.992021e-04) (5.434970e-06 -5.371437e-03 -7.379177e-07)) ((5.114640e-05 -2.140284e-02 1.019328e-05) (-1.803472e-07 -5.299914e-04 -7.670315e-08))
0.0121667     	((7.443456e-04 4.016311e-01 -4.448264e-04) (5.471258e-06 -5.370844e-03 -7.595918e-07)) ((6.178789e-05 -2.139006e-02 -3.550176e-05) (-1.842876e-07 -5.297559e-04 -7.684496e-08))
0.01225       	((7.322071e-04 4.015232e-01 -2.736273e-04) (5.529100e-06 -5.370234e-03 -7.640367e-07)) ((3.758199e-05 -2.139362e-02 -1.648655e-05) (-1.890469e-07 -5.295347e-04 -7.653943e-08))