# Forces      
# CofR        : (0.000000e+00 0.000000e+00 0.000000e+00)
# Time        forces(pressure viscous)	moments(pressure viscous)
0             	((0.000000e+00 0.000000e+00 0.000000e+00) (-1.603000e-07 -1.314910e-04 -7.249826e-07)) ((0.000000e+00 0.000000e+00 0.000000e+00) (1.870195e-08 -7.146807e-07 3.595380e-07))
1.19048e-05   	((-2.869567e-01 -1.038804e+02 -9.901389e-01) (-8.876702e-07 -1.541013e-04 -3.409532e-05)) ((9.476297e-03 -8.247530e+00 4.423352e-02) (7.005267e-08 -2.440239e-05 1.361630e-06))
2.55952e-05   	((-1.249868e-01 -7.317200e+00 -1.585314e+00) (1.866849e-05 -4.181812e-04 -1.020327e-04)) ((3.490662e-03 -7.182121e-01 6.108264e-02) (2.427262e-08 -6.862258e-05 4.849015e-06))
3.97661e-05   	((-2.041755e-01 -1.212635e+01 1.917378e+00) (2.241162e-05 -2.283330e-04 1.230167e-04)) ((1.781294e-02 -8.967363e-01 -5.777437e-02) (9.170432e-06 -1.033560e-04 -1.117715e-05))
5.39369e-05   	((3.934438e+01 -2.113508e+01 -4.805975e-01) (1.448490e-03 -4.568033e-06 2.839718e-04)) ((-1.703100e+00 -3.521209e+00 -3.791354e-01) (-4.615062e-05 -1.524126e-04 -1.608478e-05))
5.91678e-05   	((1.143174e+00 -2.961193e+00 -6.657989e-02) (1.100052e-03 9.889574e-05 4.004969e-04)) ((-5.136388e-02 -2.514407e-01 -1.424272e-03) (-2.851648e-05 -1.493720e-04 -1.204721e-05))
6.5411e-05    	((4.466309e-01 -2.125084e+00 -1.399342e-01) (1.000007e-03 1.096711e-04 3.733165e-04)) ((-1.893215e-02 -1.668610e-01 4.213858e-03) (-2.320724e-05 -1.496700e-04 -1.127724e-05))
7.28666e-05   	((2.581021e-01 -1.739150e+00 -1.128045e-01) (9.156000e-04 1.155718e-04 3.393786e-04)) ((-1.148810e-02 -1.377971e-01 3.599402e-03) (-1.939333e-05 -1.496768e-04 -1.069855e-05))
8.18133e-05   	((2.166127e-01 -1.452351e+00 -9.563453e-02) (8.372990e-04 1.203595e-04 3.006965e-04)) ((-8.960052e-03 -1.164214e-01 3.466156e-03) (-1.607786e-05 -1.494524e-04 -1.010368e-05))
9.25493e-05   	((1.602902e-01 -1.233942e+00 -8.126644e-02) (7.631936e-04 1.244638e-04 2.616894e-04)) ((-6.576732e-03 -1.002844e-01 2.949698e-03) (-1.309047e-05 -1.489243e-04 -9.475176e-06))
0.000105321   	((1.241746e-01 -1.068108e+00 -6.841281e-02) (6.917121e-04 1.274987e-04 2.242543e-04)) ((-4.990092e-03 -8.752239e-02 2.512091e-03) (-1.040564e-05 -1.481729e-04 -8.858885e-06))
0.000119596   	((1.011758e-01 -9.641379e-01 -5.973195e-02) (6.272924e-04 1.300715e-04 1.903071e-04)) ((-3.971282e-03 -7.954166e-02 2.248970e-03) (-8.211317e-06 -1.472549e-04 -8.262485e-06))
0.000133871   	((8.850607e-02 -9.181447e-01 -6.095525e-02) (5.728885e-04 1.324500e-04 1.622729e-04)) ((-3.477365e-03 -7.591889e-02 2.335493e-03) (-6.534306e-06 -1.462232e-04 -7.762706e-06))
0.000148146   	((7.904683e-02 -8.782484e-01 -5.952538e-02) (5.261521e-04 1.345737e-04 1.394346e-04)) ((-3.104350e-03 -7.275288e-02 2.317070e-03) (-5.210544e-06 -1.452366e-04 -7.309925e-06))
0.00016242    	((6.659611e-02 -8.441789e-01 -5.840956e-02) (4.860574e-04 1.368058e-04 1.207289e-04)) ((-2.619875e-03 -7.009319e-02 2.309409e-03) (-4.108901e-06 -1.443421e-04 -6.910417e-06))
0.000176695   	((5.708548e-02 -8.138851e-01 -5.673681e-02) (4.501380e-04 1.386330e-04 1.042527e-04)) ((-2.235050e-03 -6.772762e-02 2.285104e-03) (-3.214727e-06 -1.435693e-04 -6.532108e-06))
0.00019097    	((4.999284e-02 -7.884152e-01 -5.537142e-02) (4.189260e-04 1.397179e-04 8.982207e-05)) ((-1.964179e-03 -6.581932e-02 2.250620e-03) (-2.537928e-06 -1.427775e-04 -6.212814e-06))
0.000205245   	((4.512927e-02 -7.662130e-01 -5.351462e-02) (3.909023e-04 1.409295e-04 7.689540e-05)) ((-1.767856e-03 -6.417414e-02 2.181812e-03) (-1.960930e-06 -1.419091e-04 -5.910408e-06))
0.000219519   	((4.162187e-02 -7.467445e-01 -5.110584e-02) (3.658650e-04 1.428127e-04 6.517746e-05)) ((-1.618479e-03 -6.274381e-02 2.087026e-03) (-1.428555e-06 -1.410243e-04 -5.596973e-06))
0.000233794   	((3.793207e-02 -7.287543e-01 -4.980337e-02) (3.435186e-04 1.446510e-04 5.478840e-05)) ((-1.452488e-03 -6.138814e-02 2.039509e-03) (-9.864490e-07 -1.401220e-04 -5.318801e-06))
0.000248069   	((3.407469e-02 -7.130990e-01 -4.827631e-02) (3.233468e-04 1.462627e-04 4.544728e-05)) ((-1.293124e-03 -6.024518e-02 1.980139e-03) (-6.004563e-07 -1.392008e-04 -5.068129e-06))
0.000262344   	((3.128467e-02 -6.985137e-01 -4.686822e-02) (3.053219e-04 1.479350e-04 3.674651e-05)) ((-1.177513e-03 -5.915425e-02 1.924866e-03) (-2.859916e-07 -1.382551e-04 -4.822978e-06))
0.000276618   	((2.789834e-02 -6.848795e-01 -4.551332e-02) (2.889750e-04 1.495701e-04 2.863095e-05)) ((-1.039649e-03 -5.811128e-02 1.879810e-03) (-3.749404e-08 -1.372830e-04 -4.589422e-06))
0.000290893   	((2.530892e-02 -6.725200e-01 -4.503171e-02) (2.739481e-04 1.512262e-04 2.087314e-05)) ((-9.343473e-04 -5.718842e-02 1.863407e-03) (1.640221e-07 -1.362806e-04 -4.368656e-06))
0.000305168   	((2.277425e-02 -6.611853e-01 -4.384191e-02) (2.596260e-04 1.529583e-04 1.324351e-05)) ((-8.324921e-04 -5.635448e-02 1.822066e-03) (3.258836e-07 -1.352254e-04 -4.160331e-06))
0.000319443   	((2.150858e-02 -6.512167e-01 -4.313090e-02) (2.464822e-04 1.545523e-04 6.271445e-06)) ((-7.836890e-04 -5.564822e-02 1.795897e-03) (4.567297e-07 -1.341965e-04 -3.973429e-06))
0.000333717   	((2.019383e-02 -6.424603e-01 -4.190372e-02) (2.345778e-04 1.562100e-04 -2.277405e-07)) ((-7.374301e-04 -5.505477e-02 1.751426e-03) (5.540477e-07 -1.331599e-04 -3.802984e-06))
0.000347992   	((1.884178e-02 -6.342095e-01 -4.048221e-02) (2.237859e-04 1.579548e-04 -6.075898e-06)) ((-6.729592e-04 -5.447415e-02 1.695829e-03) (6.292906e-07 -1.321286e-04 -3.652201e-06))
0.000362267   	((1.775723e-02 -6.265548e-01 -3.963226e-02) (2.138316e-04 1.596300e-04 -1.150268e-05)) ((-6.308559e-04 -5.395441e-02 1.660411e-03) (6.848734e-07 -1.311179e-04 -3.512019e-06))
0.000376542   	((1.701850e-02 -6.192057e-01 -3.829238e-02) (2.046162e-04 1.612626e-04 -1.653860e-05)) ((-5.956707e-04 -5.344871e-02 1.601705e-03) (7.319442e-07 -1.301273e-04 -3.373285e-06))
0.000390816   	((1.679372e-02 -6.124880e-01 -3.708835e-02) (1.961243e-04 1.628481e-04 -2.113584e-05)) ((-5.927039e-04 -5.299162e-02 1.545820e-03) (7.747357e-07 -1.291456e-04 -3.243341e-06))
0.000405091   	((1.632420e-02 -6.057110e-01 -3.530327e-02) (1.883202e-04 1.643669e-04 -2.532269e-05)) ((-5.686032e-04 -5.250878e-02 1.471176e-03) (8.087140e-07 -1.281759e-04 -3.122177e-06))
0.000419366   	((1.564510e-02 -5.999165e-01 -3.385361e-02) (1.811636e-04 1.657799e-04 -2.926040e-05)) ((-5.394062e-04 -5.212041e-02 1.410114e-03) (8.323375e-07 -1.272236e-04 -3.007966e-06))
0.000433641   	((1.497846e-02 -5.944997e-01 -3.272062e-02) (1.743057e-04 1.672317e-04 -3.306018e-05)) ((-5.107377e-04 -5.176903e-02 1.360539e-03) (8.547840e-07 -1.262718e-04 -2.899608e-06))
0.000447915   	((1.433571e-02 -5.891216e-01 -3.095579e-02) (1.679503e-04 1.688108e-04 -3.645110e-05)) ((-4.832178e-04 -5.141198e-02 1.288862e-03) (8.722197e-07 -1.253270e-04 -2.801240e-06))
0.00046219    	((1.391396e-02 -5.840521e-01 -2.919233e-02) (1.622576e-04 1.706565e-04 -3.946275e-05)) ((-4.609126e-04 -5.108837e-02 1.214510e-03) (8.683875e-07 -1.243819e-04 -2.705989e-06))
0.000476465   	((1.326822e-02 -5.792252e-01 -2.757615e-02) (1.568442e-04 1.724187e-04 -4.228121e-05)) ((-4.339725e-04 -5.077552e-02 1.148667e-03) (8.604763e-07 -1.234638e-04 -2.612318e-06))
0.000490739   	((1.307703e-02 -5.744843e-01 -2.617538e-02) (1.517361e-04 1.740970e-04 -4.490552e-05)) ((-4.216355e-04 -5.045441e-02 1.087460e-03) (8.468084e-07 -1.225638e-04 -2.519081e-06))
0.000505014   	((1.237572e-02 -5.700877e-01 -2.546093e-02) (1.469532e-04 1.757796e-04 -4.734515e-05)) ((-3.931293e-04 -5.014859e-02 1.062404e-03) (8.303958e-07 -1.216739e-04 -2.427439e-06))
0.000519289   	((1.229435e-02 -5.661483e-01 -2.421840e-02) (1.423788e-04 1.773813e-04 -4.952915e-05)) ((-3.840540e-04 -4.988336e-02 1.009398e-03) (8.184607e-07 -1.207991e-04 -2.343000e-06))
0.000533564   	((1.220094e-02 -5.623462e-01 -2.283077e-02) (1.379984e-04 1.791217e-04 -5.147481e-05)) ((-3.729351e-04 -4.963715e-02 9.549908e-04) (8.076864e-07 -1.199249e-04 -2.264511e-06))
0.000547838   	((1.207919e-02 -5.587487e-01 -2.183051e-02) (1.338763e-04 1.809039e-04 -5.327552e-05)) ((-3.609489e-04 -4.939511e-02 9.162387e-04) (7.948288e-07 -1.190601e-04 -2.188411e-06))
0.000562113   	((1.186856e-02 -5.552037e-01 -2.065935e-02) (1.299453e-04 1.827249e-04 -5.489820e-05)) ((-3.437709e-04 -4.915646e-02 8.730177e-04) (7.810824e-07 -1.182050e-04 -2.112296e-06))
0.000576388   	((1.167775e-02 -5.516955e-01 -1.961975e-02) (1.261905e-04 1.845626e-04 -5.635815e-05)) ((-3.344501e-04 -4.892231e-02 8.318209e-04) (7.673362e-07 -1.173481e-04 -2.036698e-06))
0.000590663   	((1.130029e-02 -5.486080e-01 -1.910555e-02) (1.226247e-04 1.863494e-04 -5.770173e-05)) ((-3.205873e-04 -4.872614e-02 8.099597e-04) (7.526025e-07 -1.165021e-04 -1.960573e-06))
0.000604937   	((1.112442e-02 -5.454539e-01 -1.804265e-02) (1.192315e-04 1.881006e-04 -5.889760e-05)) ((-3.112940e-04 -4.853163e-02 7.698011e-04) (7.371979e-07 -1.156704e-04 -1.888863e-06))
0.000619212   	((1.077930e-02 -5.423535e-01 -1.741450e-02) (1.159594e-04 1.898117e-04 -5.988196e-05)) ((-2.940098e-04 -4.832914e-02 7.481739e-04) (7.227135e-07 -1.148532e-04 -1.819779e-06))
0.000633487   	((1.030382e-02 -5.393384e-01 -1.683250e-02) (1.128243e-04 1.914563e-04 -6.067598e-05)) ((-2.749344e-04 -4.812014e-02 7.269027e-04) (7.063295e-07 -1.140471e-04 -1.752254e-06))
0.000647762   	((1.014198e-02 -5.365705e-01 -1.629508e-02) (1.098311e-04 1.930898e-04 -6.133229e-05)) ((-2.670433e-04 -4.794225e-02 7.068466e-04) (6.886668e-07 -1.132509e-04 -1.686184e-06))
0.000662036   	((9.556560e-03 -5.340755e-01 -1.564281e-02) (1.069869e-04 1.946961e-04 -6.184405e-05)) ((-2.453645e-04 -4.778328e-02 6.856005e-04) (6.693794e-07 -1.124614e-04 -1.622370e-06))
0.000676311   	((9.750179e-03 -5.313599e-01 -1.506332e-02) (1.043179e-04 1.962702e-04 -6.217335e-05)) ((-2.528452e-04 -4.759625e-02 6.622304e-04) (6.486266e-07 -1.116774e-04 -1.561394e-06))
0.000690586   	((9.477807e-03 -5.288891e-01 -1.429373e-02) (1.017586e-04 1.978074e-04 -6.233909e-05)) ((-2.411079e-04 -4.742788e-02 6.322826e-04) (6.304085e-07 -1.109028e-04 -1.504162e-06))
0.000704861   	((9.083927e-03 -5.265088e-01 -1.386987e-02) (9.932531e-05 1.993021e-04 -6.241908e-05)) ((-2.289049e-04 -4.727086e-02 6.179534e-04) (6.123807e-07 -1.101385e-04 -1.449725e-06))
0.000719135   	((8.888047e-03 -5.243925e-01 -1.327942e-02) (9.697774e-05 2.007251e-04 -6.241153e-05)) ((-2.190617e-04 -4.714059e-02 5.905817e-04) (5.940750e-07 -1.093869e-04 -1.396732e-06))
0.00073341    	((8.463534e-03 -5.221628e-01 -1.274919e-02) (9.470377e-05 2.021143e-04 -6.231565e-05)) ((-2.013088e-04 -4.699565e-02 5.707243e-04) (5.754677e-07 -1.086456e-04 -1.344636e-06))
0.000747685   	((8.291047e-03 -5.200588e-01 -1.214717e-02) (9.241539e-05 2.034599e-04 -6.216651e-05)) ((-1.908610e-04 -4.686529e-02 5.449076e-04) (5.598270e-07 -1.079189e-04 -1.291722e-06))
0.00076196    	((8.241029e-03 -5.181223e-01 -1.161739e-02) (9.019589e-05 2.047697e-04 -6.189161e-05)) ((-1.878273e-04 -4.674866e-02 5.246382e-04) (5.449998e-07 -1.072004e-04 -1.242788e-06))
0.000776234   	((8.006432e-03 -5.160512e-01 -1.138338e-02) (8.803222e-05 2.060245e-04 -6.155780e-05)) ((-1.787768e-04 -4.661134e-02 5.150638e-04) (5.280347e-07 -1.064934e-04 -1.193863e-06))
0.000790509   	((7.595702e-03 -5.138779e-01 -1.108007e-02) (8.605258e-05 2.071516e-04 -6.118268e-05)) ((-1.631720e-04 -4.646751e-02 5.067860e-04) (4.979387e-07 -1.058069e-04 -1.153694e-06))
0.000804784   	((7.382444e-03 -5.118911e-01 -1.041476e-02) (8.412763e-05 2.082221e-04 -6.080462e-05)) ((-1.563952e-04 -4.633610e-02 4.811359e-04) (4.682308e-07 -1.051297e-04 -1.113219e-06))
0.000819059   	((7.022393e-03 -5.099716e-01 -9.820041e-03) (8.224027e-05 2.092520e-04 -6.038810e-05)) ((-1.434374e-04 -4.620994e-02 4.613698e-04) (4.380858e-07 -1.044620e-04 -1.073571e-06))
0.000833333   	((7.060595e-03 -5.083088e-01 -9.054226e-03) (8.048152e-05 2.102514e-04 -5.996157e-05)) ((-1.434555e-04 -4.611552e-02 4.292888e-04) (4.045096e-07 -1.038034e-04 -1.034776e-06))
0.000847458   	((6.885383e-03 -5.078804e-01 -8.886019e-03) (7.874860e-05 2.112218e-04 -5.948649e-05)) ((-1.385522e-04 -4.611965e-02 4.266062e-04) (3.719640e-07 -1.031600e-04 -9.967010e-07))
0.000861582   	((6.706327e-03 -5.062638e-01 -8.675275e-03) (7.706066e-05 2.121746e-04 -5.898858e-05)) ((-1.386103e-04 -4.601362e-02 4.184449e-04) (3.377335e-07 -1.025252e-04 -9.591506e-07))
0.000875706   	((6.271481e-03 -5.046288e-01 -8.566956e-03) (7.537844e-05 2.130813e-04 -5.844568e-05)) ((-1.259919e-04 -4.590382e-02 4.163545e-04) (3.063234e-07 -1.019034e-04 -9.247774e-07))
0.000889831   	((5.897127e-03 -5.030676e-01 -8.188647e-03) (7.377646e-05 2.139648e-04 -5.781109e-05)) ((-1.138485e-04 -4.580194e-02 4.038642e-04) (2.736774e-07 -1.012901e-04 -8.924213e-07))
0.000903955   	((5.758841e-03 -5.016195e-01 -7.824755e-03) (7.224765e-05 2.148122e-04 -5.708331e-05)) ((-1.104107e-04 -4.571009e-02 3.874206e-04) (2.413903e-07 -1.006827e-04 -8.632743e-07))
0.000918079   	((5.757704e-03 -4.998313e-01 -7.743802e-03) (7.077112e-05 2.156284e-04 -5.628406e-05)) ((-1.117867e-04 -4.557513e-02 3.789395e-04) (2.095141e-07 -1.000813e-04 -8.369209e-07))
0.000932203   	((5.623941e-03 -4.982215e-01 -7.691170e-03) (6.933843e-05 2.163919e-04 -5.548466e-05)) ((-1.083494e-04 -4.546210e-02 3.761722e-04) (1.786497e-07 -9.949004e-05 -8.117153e-07))
0.000946328   	((5.523387e-03 -4.966980e-01 -7.685977e-03) (6.797475e-05 2.171146e-04 -5.468763e-05)) ((-1.113859e-04 -4.534980e-02 3.740448e-04) (1.466907e-07 -9.890864e-05 -7.875919e-07))
0.000960452   	((5.536638e-03 -4.952112e-01 -7.511251e-03) (6.663661e-05 2.177736e-04 -5.389625e-05)) ((-1.158416e-04 -4.525230e-02 3.709943e-04) (1.142145e-07 -9.833807e-05 -7.642966e-07))
0.000974576   	((5.597028e-03 -4.938892e-01 -7.586018e-03) (6.532021e-05 2.183846e-04 -5.309230e-05)) ((-1.208990e-04 -4.516239e-02 3.678030e-04) (8.376067e-08 -9.777375e-05 -7.422201e-07))
0.000988701   	((5.630376e-03 -4.924743e-01 -7.264585e-03) (6.405967e-05 2.189757e-04 -5.221628e-05)) ((-1.210362e-04 -4.506615e-02 3.560526e-04) (5.468567e-08 -9.721389e-05 -7.212630e-07))
0.00100282    	((5.479885e-03 -4.910985e-01 -7.258256e-03) (6.281713e-05 2.195083e-04 -5.131143e-05)) ((-1.195026e-04 -4.496191e-02 3.544930e-04) (2.625646e-08 -9.666165e-05 -7.013413e-07))
0.00101695    	((5.326819e-03 -4.896568e-01 -7.056319e-03) (6.162380e-05 2.199927e-04 -5.037606e-05)) ((-1.152299e-04 -4.485390e-02 3.492588e-04) (-1.317674e-09 -9.611793e-05 -6.835966e-07))
0.00103107    	((5.209762e-03 -4.883897e-01 -7.191704e-03) (6.046493e-05 2.204106e-04 -4.945503e-05)) ((-1.146334e-04 -4.475586e-02 3.521775e-04) (-2.882792e-08 -9.558326e-05 -6.665768e-07))
0.0010452     	((5.226918e-03 -4.869102e-01 -6.995891e-03) (5.935996e-05 2.208184e-04 -4.856574e-05)) ((-1.153102e-04 -4.464660e-02 3.486066e-04) (-6.084504e-08 -9.505680e-05 -6.489181e-07))
0.00105932    	((5.094818e-03 -4.858114e-01 -6.939762e-03) (5.830288e-05 2.211669e-04 -4.771674e-05)) ((-1.104000e-04 -4.455908e-02 3.450467e-04) (-9.285173e-08 -9.453921e-05 -6.311171e-07))
0.00107345    	((5.002998e-03 -4.844716e-01 -6.737181e-03) (5.731703e-05 2.215155e-04 -4.691852e-05)) ((-1.085325e-04 -4.446245e-02 3.383264e-04) (-1.266503e-07 -9.402695e-05 -6.126937e-07))
0.00108757    	((4.846405e-03 -4.833159e-01 -6.572045e-03) (5.634341e-05 2.218062e-04 -4.615053e-05)) ((-1.059754e-04 -4.437086e-02 3.328141e-04) (-1.595376e-07 -9.352355e-05 -5.947297e-07))
0.00110169    	((5.033881e-03 -4.820166e-01 -6.437562e-03) (5.538125e-05 2.220407e-04 -4.540771e-05)) ((-1.146447e-04 -4.427541e-02 3.284744e-04) (-1.908198e-07 -9.302909e-05 -5.765282e-07))
0.00111582    	((4.947585e-03 -4.808419e-01 -6.215037e-03) (5.443719e-05 2.222125e-04 -4.468893e-05)) ((-1.140438e-04 -4.417157e-02 3.181981e-04) (-2.200333e-07 -9.254334e-05 -5.586912e-07))
0.00112994    	((4.793234e-03 -4.797406e-01 -6.039595e-03) (5.351376e-05 2.223299e-04 -4.398459e-05)) ((-1.117480e-04 -4.409489e-02 3.137155e-04) (-2.472404e-07 -9.206438e-05 -5.415873e-07))
0.00114407    	((4.768510e-03 -4.788458e-01 -5.901862e-03) (5.263233e-05 2.223956e-04 -4.332296e-05)) ((-1.148958e-04 -4.402331e-02 3.076969e-04) (-2.735275e-07 -9.158984e-05 -5.246984e-07))
0.00115819    	((4.681320e-03 -4.777432e-01 -5.825939e-03) (5.179192e-05 2.223951e-04 -4.266174e-05)) ((-1.124776e-04 -4.393993e-02 3.054992e-04) (-2.986258e-07 -9.112357e-05 -5.088286e-07))
0.00117232    	((4.485210e-03 -4.766590e-01 -5.569886e-03) (5.096209e-05 2.223432e-04 -4.199738e-05)) ((-1.071417e-04 -4.385102e-02 2.961481e-04) (-3.215272e-07 -9.066448e-05 -4.934889e-07))
0.00118644    	((4.304799e-03 -4.755567e-01 -5.522044e-03) (5.015336e-05 2.222185e-04 -4.134723e-05)) ((-1.034362e-04 -4.376422e-02 2.970050e-04) (-3.425148e-07 -9.021381e-05 -4.786105e-07))
0.00120056    	((3.995889e-03 -4.746104e-01 -5.500458e-03) (4.936389e-05 2.220359e-04 -4.068832e-05)) ((-9.809793e-05 -4.368935e-02 2.970616e-04) (-3.634485e-07 -8.977124e-05 -4.643904e-07))
0.00121469    	((3.683149e-03 -4.734701e-01 -5.586117e-03) (4.860950e-05 2.218120e-04 -4.003336e-05)) ((-8.847741e-05 -4.359857e-02 3.009282e-04) (-3.840013e-07 -8.933538e-05 -4.500405e-07))
0.00122881    	((3.696867e-03 -4.725196e-01 -5.703359e-03) (4.788932e-05 2.215276e-04 -3.938943e-05)) ((-9.447185e-05 -4.350756e-02 3.021185e-04) (-4.040728e-07 -8.890644e-05 -4.349097e-07))
0.00124294    	((3.487540e-03 -4.715161e-01 -5.622318e-03) (4.720620e-05 2.211765e-04 -3.876360e-05)) ((-8.807891e-05 -4.343196e-02 3.015545e-04) (-4.237057e-07 -8.848400e-05 -4.178516e-07))
0.00125706    	((3.213324e-03 -4.704966e-01 -5.436265e-03) (4.654807e-05 2.207703e-04 -3.814961e-05)) ((-8.318914e-05 -4.334772e-02 2.965450e-04) (-4.425860e-07 -8.806725e-05 -3.986991e-07))
0.00127119    	((3.147132e-03 -4.695555e-01 -5.316538e-03) (4.591597e-05 2.203500e-04 -3.754249e-05)) ((-8.044076e-05 -4.327320e-02 2.929435e-04) (-4.610109e-07 -8.765546e-05 -3.783958e-07))
0.00128531    	((2.927376e-03 -4.686488e-01 -5.308665e-03) (4.531962e-05 2.198997e-04 -3.694223e-05)) ((-7.828249e-05 -4.319171e-02 2.931843e-04) (-4.788304e-07 -8.724836e-05 -3.590377e-07))
0.00129944    	((2.991084e-03 -4.675903e-01 -5.439879e-03) (4.478331e-05 2.193949e-04 -3.634003e-05)) ((-8.266357e-05 -4.310396e-02 2.976737e-04) (-4.951047e-07 -8.684624e-05 -3.414692e-07))
0.00131356    	((3.077671e-03 -4.665826e-01 -5.389608e-03) (4.428965e-05 2.188455e-04 -3.570178e-05)) ((-9.274431e-05 -4.301097e-02 2.939532e-04) (-5.102059e-07 -8.644931e-05 -3.248832e-07))
0.00132768    	((3.340248e-03 -4.654169e-01 -5.325757e-03) (4.380123e-05 2.182588e-04 -3.504651e-05)) ((-1.026173e-04 -4.291258e-02 2.892465e-04) (-5.237887e-07 -8.605619e-05 -3.096944e-07))
0.00134181    	((3.360755e-03 -4.643299e-01 -5.370400e-03) (4.334432e-05 2.176698e-04 -3.445399e-05)) ((-1.098479e-04 -4.281049e-02 2.893666e-04) (-5.387849e-07 -8.566532e-05 -2.923541e-07))
0.00135593    	((3.313625e-03 -4.633647e-01 -5.385089e-03) (4.289999e-05 2.170324e-04 -3.388170e-05)) ((-1.071898e-04 -4.272754e-02 2.888364e-04) (-5.532434e-07 -8.527919e-05 -2.757193e-07))
0.00137006    	((3.207533e-03 -4.624127e-01 -5.356451e-03) (4.246030e-05 2.163392e-04 -3.333490e-05)) ((-1.084837e-04 -4.263785e-02 2.865115e-04) (-5.668467e-07 -8.489982e-05 -2.593901e-07))
0.00138418    	((3.213921e-03 -4.614808e-01 -5.366259e-03) (4.203172e-05 2.155940e-04 -3.280465e-05)) ((-1.076808e-04 -4.255740e-02 2.852564e-04) (-5.805273e-07 -8.452714e-05 -2.429563e-07))
0.00139831    	((3.189759e-03 -4.605491e-01 -5.154436e-03) (4.161736e-05 2.147941e-04 -3.227755e-05)) ((-1.104125e-04 -4.247316e-02 2.748849e-04) (-5.933336e-07 -8.416012e-05 -2.268735e-07))
0.00141243    	((3.217059e-03 -4.596878e-01 -5.034540e-03) (4.121078e-05 2.139313e-04 -3.176890e-05)) ((-1.105054e-04 -4.239961e-02 2.726723e-04) (-6.056182e-07 -8.379901e-05 -2.097014e-07))
0.00142655    	((3.170210e-03 -4.587482e-01 -5.064716e-03) (4.080994e-05 2.130398e-04 -3.126470e-05)) ((-1.132533e-04 -4.230762e-02 2.744651e-04) (-6.179262e-07 -8.344221e-05 -1.930091e-07))
0.00144068    	((2.912019e-03 -4.577288e-01 -4.962623e-03) (4.043060e-05 2.121374e-04 -3.072804e-05)) ((-1.038806e-04 -4.221018e-02 2.730391e-04) (-6.312618e-07 -8.308890e-05 -1.762620e-07))
0.0014548     	((2.875407e-03 -4.567715e-01 -4.831180e-03) (4.006909e-05 2.112142e-04 -3.017694e-05)) ((-1.061723e-04 -4.211709e-02 2.666815e-04) (-6.448741e-07 -8.273917e-05 -1.597732e-07))
0.00146893    	((2.832444e-03 -4.559293e-01 -4.875910e-03) (3.971262e-05 2.102537e-04 -2.964150e-05)) ((-1.046734e-04 -4.204151e-02 2.694825e-04) (-6.575131e-07 -8.239339e-05 -1.428982e-07))
0.00148305    	((2.702153e-03 -4.550367e-01 -4.919711e-03) (3.936836e-05 2.092413e-04 -2.913554e-05)) ((-1.052503e-04 -4.196087e-02 2.712095e-04) (-6.684961e-07 -8.205357e-05 -1.247811e-07))
0.00149718    	((2.796358e-03 -4.540157e-01 -5.059639e-03) (3.901527e-05 2.082010e-04 -2.861989e-05)) ((-1.099619e-04 -4.187022e-02 2.750301e-04) (-6.789094e-07 -8.171807e-05 -1.075649e-07))
0.0015113     	((2.930146e-03 -4.529690e-01 -5.045778e-03) (3.867473e-05 2.071356e-04 -2.810657e-05)) ((-1.192592e-04 -4.176815e-02 2.723656e-04) (-6.887330e-07 -8.138611e-05 -9.197559e-08))
0.00152542    	((3.031215e-03 -4.518067e-01 -5.111275e-03) (3.833899e-05 2.060187e-04 -2.760133e-05)) ((-1.248116e-04 -4.165588e-02 2.725223e-04) (-6.976845e-07 -8.105900e-05 -7.615794e-08))
0.00153955    	((2.980329e-03 -4.508124e-01 -5.072619e-03) (3.801414e-05 2.048570e-04 -2.709416e-05)) ((-1.257279e-04 -4.156015e-02 2.705133e-04) (-7.056213e-07 -8.073656e-05 -6.068460e-08))
0.00155367    	((2.946042e-03 -4.497563e-01 -5.032376e-03) (3.770343e-05 2.036590e-04 -2.656994e-05)) ((-1.235818e-04 -4.146116e-02 2.704978e-04) (-7.126389e-07 -8.041837e-05 -4.530297e-08))
0.0015678     	((2.980737e-03 -4.488438e-01 -5.035878e-03) (3.740127e-05 2.024275e-04 -2.605611e-05)) ((-1.283203e-04 -4.137134e-02 2.698103e-04) (-7.190722e-07 -8.010521e-05 -2.937628e-08))
0.00158192    	((2.929304e-03 -4.477934e-01 -5.122339e-03) (3.712872e-05 2.011718e-04 -2.556076e-05)) ((-1.282080e-04 -4.127150e-02 2.732286e-04) (-7.256756e-07 -7.979642e-05 -1.310545e-08))
0.00159605    	((2.857989e-03 -4.469313e-01 -5.122806e-03) (3.685274e-05 1.998673e-04 -2.507123e-05)) ((-1.291017e-04 -4.118805e-02 2.733909e-04) (-7.313122e-07 -7.949189e-05 3.534453e-09))
0.00161017    	((2.932724e-03 -4.460108e-01 -5.111059e-03) (3.658788e-05 1.985069e-04 -2.458553e-05)) ((-1.317268e-04 -4.110409e-02 2.731320e-04) (-7.359508e-07 -7.919171e-05 2.031811e-08))
0.00162429    	((2.950337e-03 -4.449966e-01 -5.036367e-03) (3.633902e-05 1.971025e-04 -2.411600e-05)) ((-1.350439e-04 -4.100047e-02 2.718071e-04) (-7.388299e-07 -7.889443e-05 3.600546e-08))
0.00163842    	((2.938518e-03 -4.439928e-01 -4.895958e-03) (3.611322e-05 1.956505e-04 -2.366690e-05)) ((-1.334653e-04 -4.089435e-02 2.683965e-04) (-7.409493e-07 -7.859975e-05 5.202425e-08))
0.00165254    	((2.949790e-03 -4.430372e-01 -4.986523e-03) (3.590428e-05 1.941552e-04 -2.322817e-05)) ((-1.353206e-04 -4.079233e-02 2.710366e-04) (-7.424595e-07 -7.830870e-05 6.826962e-08))
0.00166667    	((3.030147e-03 -4.421124e-01 -5.020161e-03) (3.571736e-05 1.926238e-04 -2.280220e-05)) ((-1.393156e-04 -4.070232e-02 2.717296e-04) (-7.435881e-07 -7.802028e-05 8.457952e-08))
0.00168079    	((3.272677e-03 -4.411420e-01 -5.104725e-03) (3.553532e-05 1.910585e-04 -2.239405e-05)) ((-1.509179e-04 -4.060336e-02 2.741089e-04) (-7.440535e-07 -7.773527e-05 1.011187e-07))
0.00169492    	((3.393473e-03 -4.402625e-01 -5.204710e-03) (3.536720e-05 1.894629e-04 -2.199251e-05)) ((-1.553751e-04 -4.051422e-02 2.783351e-04) (-7.436858e-07 -7.745401e-05 1.180312e-07))
0.00170904    	((3.424748e-03 -4.392953e-01 -5.386716e-03) (3.522579e-05 1.878124e-04 -2.159277e-05)) ((-1.579859e-04 -4.041624e-02 2.845487e-04) (-7.442855e-07 -7.717528e-05 1.367410e-07))
0.00172316    	((3.438253e-03 -4.383665e-01 -5.371288e-03) (3.510399e-05 1.861310e-04 -2.120065e-05)) ((-1.591245e-04 -4.032264e-02 2.853121e-04) (-7.440194e-07 -7.690031e-05 1.556071e-07))
0.00173729    	((3.589884e-03 -4.374124e-01 -5.413088e-03) (3.502407e-05 1.844269e-04 -2.083408e-05)) ((-1.641075e-04 -4.022777e-02 2.856795e-04) (-7.431435e-07 -7.663053e-05 1.749681e-07))
0.00175141    	((3.725943e-03 -4.365971e-01 -5.284653e-03) (3.494431e-05 1.827110e-04 -2.047174e-05)) ((-1.691094e-04 -4.014857e-02 2.815575e-04) (-7.411607e-07 -7.636300e-05 1.937575e-07))
0.00176554    	((3.813577e-03 -4.357236e-01 -5.457165e-03) (3.486010e-05 1.809887e-04 -2.009966e-05)) ((-1.754791e-04 -4.006151e-02 2.862766e-04) (-7.386141e-07 -7.609631e-05 2.119234e-07))
0.00177966    	((3.752588e-03 -4.347773e-01 -5.363200e-03) (3.478465e-05 1.792618e-04 -1.971600e-05)) ((-1.728190e-04 -3.996324e-02 2.840593e-04) (-7.366825e-07 -7.583153e-05 2.296191e-07))
0.00179379    	((3.787680e-03 -4.338532e-01 -5.331832e-03) (3.471145e-05 1.775176e-04 -1.932811e-05)) ((-1.753974e-04 -3.986813e-02 2.822675e-04) (-7.344902e-07 -7.556844e-05 2.467042e-07))
0.00180791    	((3.825006e-03 -4.329604e-01 -5.381662e-03) (3.463296e-05 1.757667e-04 -1.893959e-05)) ((-1.775366e-04 -3.977944e-02 2.833385e-04) (-7.320065e-07 -7.530715e-05 2.631104e-07))
0.00182203    	((3.849154e-03 -4.320240e-01 -5.501876e-03) (3.455063e-05 1.740184e-04 -1.854911e-05)) ((-1.794436e-04 -3.968651e-02 2.861518e-04) (-7.286844e-07 -7.504757e-05 2.787010e-07))
0.00183616    	((3.883106e-03 -4.310289e-01 -5.506616e-03) (3.446636e-05 1.722542e-04 -1.814784e-05)) ((-1.827357e-04 -3.958509e-02 2.878279e-04) (-7.253514e-07 -7.479036e-05 2.940854e-07))
0.00185028    	((3.920328e-03 -4.301301e-01 -5.537764e-03) (3.436923e-05 1.704744e-04 -1.773145e-05)) ((-1.852537e-04 -3.949104e-02 2.893691e-04) (-7.207409e-07 -7.453463e-05 3.095785e-07))
0.00186441    	((3.871531e-03 -4.292798e-01 -5.581053e-03) (3.427603e-05 1.686715e-04 -1.731758e-05)) ((-1.847286e-04 -3.939778e-02 2.899988e-04) (-7.161470e-07 -7.428128e-05 3.247228e-07))
0.00187853    	((3.740312e-03 -4.284738e-01 -5.495949e-03) (3.418883e-05 1.668433e-04 -1.689807e-05)) ((-1.847370e-04 -3.931517e-02 2.861266e-04) (-7.119087e-07 -7.402940e-05 3.391191e-07))
0.00189266    	((3.667919e-03 -4.276509e-01 -5.501188e-03) (3.408850e-05 1.649841e-04 -1.648615e-05)) ((-1.814801e-04 -3.923050e-02 2.863602e-04) (-7.073517e-07 -7.378023e-05 3.532925e-07))
0.00190678    	((3.633900e-03 -4.268387e-01 -5.359739e-03) (3.397085e-05 1.630944e-04 -1.609005e-05)) ((-1.808071e-04 -3.915056e-02 2.829516e-04) (-7.026932e-07 -7.353485e-05 3.666283e-07))
0.0019209     	((3.550987e-03 -4.259717e-01 -5.408337e-03) (3.384769e-05 1.611896e-04 -1.569654e-05)) ((-1.783992e-04 -3.906328e-02 2.843884e-04) (-6.978075e-07 -7.329146e-05 3.796426e-07))
0.00193503    	((3.770742e-03 -4.250721e-01 -5.442514e-03) (3.372081e-05 1.592665e-04 -1.531641e-05)) ((-1.888264e-04 -3.896783e-02 2.828676e-04) (-6.928111e-07 -7.304993e-05 3.924563e-07))
0.00194915    	((4.068420e-03 -4.241222e-01 -5.554829e-03) (3.360389e-05 1.573244e-04 -1.492982e-05)) ((-2.036764e-04 -3.886886e-02 2.846234e-04) (-6.874218e-07 -7.280969e-05 4.050600e-07))
0.00196328    	((4.141140e-03 -4.231996e-01 -5.548539e-03) (3.348129e-05 1.553589e-04 -1.453702e-05)) ((-2.092041e-04 -3.877263e-02 2.838628e-04) (-6.815352e-07 -7.257070e-05 4.172054e-07))
0.0019774     	((4.037952e-03 -4.223269e-01 -5.509473e-03) (3.335800e-05 1.533881e-04 -1.414180e-05)) ((-2.068490e-04 -3.868726e-02 2.823164e-04) (-6.754922e-07 -7.233449e-05 4.286719e-07))
0.00199153    	((3.993689e-03 -4.213784e-01 -5.529160e-03) (3.323411e-05 1.514019e-04 -1.374464e-05)) ((-2.069056e-04 -3.859235e-02 2.834424e-04) (-6.689721e-07 -7.210046e-05 4.396505e-07))
0.00200565    	((4.027007e-03 -4.203946e-01 -5.454761e-03) (3.310941e-05 1.493994e-04 -1.335370e-05)) ((-2.075488e-04 -3.848916e-02 2.790328e-04) (-6.622340e-07 -7.186736e-05 4.499907e-07))
0.00201977    	((4.133624e-03 -4.195306e-01 -5.302848e-03) (3.298907e-05 1.473883e-04 -1.295778e-05)) ((-2.119919e-04 -3.840304e-02 2.753781e-04) (-6.553946e-07 -7.163578e-05 4.596814e-07))
0.0020339     	((4.131785e-03 -4.185859e-01 -5.213729e-03) (3.287712e-05 1.453512e-04 -1.256731e-05)) ((-2.140703e-04 -3.830582e-02 2.723433e-04) (-6.479238e-07 -7.140671e-05 4.688410e-07))
0.00204802    	((4.160388e-03 -4.178364e-01 -5.191703e-03) (3.275837e-05 1.432979e-04 -1.217923e-05)) ((-2.165422e-04 -3.822677e-02 2.722013e-04) (-6.403462e-07 -7.117908e-05 4.772173e-07))
0.00206215    	((4.167945e-03 -4.170403e-01 -5.246361e-03) (3.263895e-05 1.412455e-04 -1.178705e-05)) ((-2.160137e-04 -3.814287e-02 2.738663e-04) (-6.330488e-07 -7.095165e-05 4.848824e-07))
0.00207627    	((4.219776e-03 -4.162552e-01 -5.251178e-03) (3.251762e-05 1.391892e-04 -1.139910e-05)) ((-2.180139e-04 -3.806500e-02 2.717803e-04) (-6.260082e-07 -7.072582e-05 4.921833e-07))
0.0020904     	((4.307879e-03 -4.155448e-01 -5.212376e-03) (3.240365e-05 1.371413e-04 -1.101899e-05)) ((-2.206712e-04 -3.799231e-02 2.691773e-04) (-6.198268e-07 -7.050136e-05 4.992082e-07))
0.00210452    	((4.491869e-03 -4.147413e-01 -5.265045e-03) (3.229261e-05 1.351165e-04 -1.065073e-05)) ((-2.277767e-04 -3.790929e-02 2.683386e-04) (-6.155123e-07 -7.027851e-05 5.054567e-07))
0.00211864    	((4.543989e-03 -4.139981e-01 -5.395262e-03) (3.217012e-05 1.330732e-04 -1.028515e-05)) ((-2.297984e-04 -3.783378e-02 2.722340e-04) (-6.105485e-07 -7.005825e-05 5.117235e-07))
0.00213277    	((4.638067e-03 -4.131455e-01 -5.493209e-03) (3.204421e-05 1.310108e-04 -9.924929e-06)) ((-2.340473e-04 -3.774749e-02 2.747499e-04) (-6.047548e-07 -6.984008e-05 5.182518e-07))
0.00214689    	((4.677378e-03 -4.122488e-01 -5.509604e-03) (3.191108e-05 1.289395e-04 -9.568978e-06)) ((-2.363052e-04 -3.765969e-02 2.738516e-04) (-5.983594e-07 -6.962439e-05 5.248186e-07))
0.00216102    	((4.765045e-03 -4.113276e-01 -5.353373e-03) (3.177893e-05 1.268613e-04 -9.212645e-06)) ((-2.397534e-04 -3.756175e-02 2.673292e-04) (-5.918110e-07 -6.941031e-05 5.310600e-07))