# Forces      
# CofR        : (0.000000e+00 0.000000e+00 0.000000e+00)
# Time        forces(pressure viscous)	moments(pressure viscous)
0             	((0.000000e+00 0.000000e+00 0.000000e+00) (-1.606861e-07 -1.312423e-04 -7.203510e-07)) ((0.000000e+00 0.000000e+00 0.000000e+00) (1.876268e-08 -7.140786e-07 3.565018e-07))
1.19048e-05   	((-2.671605e-01 -1.034541e+02 -9.161429e-01) (-7.523640e-07 -1.537178e-04 -3.357235e-05)) ((8.318926e-03 -8.217330e+00 4.253725e-02) (7.969024e-08 -2.432330e-05 1.373127e-06))
2.53968e-05   	((-1.196120e-01 -7.511648e+00 -1.575708e+00) (1.996996e-05 -4.132122e-04 -9.971941e-05)) ((3.385192e-03 -7.276389e-01 6.121277e-02) (2.579949e-08 -6.758616e-05 4.870628e-06))
3.93707e-05   	((-4.871142e-01 -1.234602e+01 1.583580e+00) (-7.431857e-06 -2.772444e-04 9.876698e-05)) ((2.830958e-02 -9.537132e-01 -4.758399e-02) (8.264079e-06 -1.092290e-04 -1.109292e-05))
5.33447e-05   	((1.345858e+01 -1.231664e+01 -2.734488e-01) (6.750262e-04 -1.274271e-04 1.729329e-04)) ((-6.250286e-01 -1.682955e+00 -1.205973e-01) (-1.616290e-05 -1.521075e-04 -1.652494e-05))
5.98326e-05   	((1.425591e+00 -2.952662e+00 1.102092e-01) (5.646239e-04 -5.522128e-05 1.789786e-04)) ((-6.201873e-02 -3.012861e-01 -1.770751e-02) (-9.094799e-06 -1.492564e-04 -1.323213e-05))
6.75898e-05   	((2.647323e-01 -1.857694e+00 -1.083407e-01) (5.007720e-04 -2.765386e-05 1.768359e-04)) ((-1.139624e-02 -1.496364e-01 3.736805e-03) (-6.217764e-06 -1.462205e-04 -1.213008e-05))
7.67761e-05   	((1.389961e-01 -1.511284e+00 -9.847995e-02) (4.570156e-04 -9.545501e-06 1.637459e-04)) ((-5.948803e-03 -1.208434e-01 3.973435e-03) (-4.390050e-06 -1.444559e-04 -1.120233e-05))
8.77403e-05   	((9.262725e-02 -1.266816e+00 -8.182995e-02) (4.199736e-04 3.743808e-06 1.439552e-04)) ((-3.844207e-03 -1.020900e-01 3.482417e-03) (-3.071892e-06 -1.428968e-04 -1.035754e-05))
0.000100897   	((7.266320e-02 -1.082769e+00 -6.462616e-02) (3.857095e-04 1.580963e-05 1.232117e-04)) ((-2.888379e-03 -8.825746e-02 2.808185e-03) (-1.907655e-06 -1.414490e-04 -9.513292e-06))
0.00011525    	((6.415733e-02 -9.794880e-01 -5.823875e-02) (3.543419e-04 2.742915e-05 1.057453e-04)) ((-2.502532e-03 -8.045611e-02 2.536834e-03) (-8.521430e-07 -1.402015e-04 -8.701655e-06))
0.000129604   	((5.502450e-02 -9.282434e-01 -5.734320e-02) (3.274754e-04 3.744935e-05 9.053899e-05)) ((-2.134088e-03 -7.653645e-02 2.512953e-03) (-3.939382e-08 -1.390823e-04 -7.998045e-06))
0.000143957   	((4.874186e-02 -8.844188e-01 -5.679855e-02) (3.043327e-04 4.642370e-05 7.724575e-05)) ((-1.894387e-03 -7.313418e-02 2.491071e-03) (5.962073e-07 -1.381048e-04 -7.375862e-06))
0.00015831    	((4.160318e-02 -8.479677e-01 -5.484953e-02) (2.842150e-04 5.482790e-05 6.556155e-05)) ((-1.617476e-03 -7.035917e-02 2.413676e-03) (1.089490e-06 -1.371939e-04 -6.825578e-06))
0.000172663   	((3.646735e-02 -8.152317e-01 -5.359676e-02) (2.668350e-04 6.233591e-05 5.481968e-05)) ((-1.413895e-03 -6.781390e-02 2.359448e-03) (1.489325e-06 -1.363646e-04 -6.339105e-06))
0.000187016   	((3.075490e-02 -7.871917e-01 -5.227248e-02) (2.519291e-04 6.890533e-05 4.515171e-05)) ((-1.189207e-03 -6.566059e-02 2.315405e-03) (1.812020e-06 -1.355919e-04 -5.914218e-06))
0.000201369   	((2.617492e-02 -7.624427e-01 -5.126362e-02) (2.391346e-04 7.508981e-05 3.619460e-05)) ((-1.009763e-03 -6.376710e-02 2.279358e-03) (2.050029e-06 -1.348529e-04 -5.533604e-06))
0.000215723   	((2.337882e-02 -7.417762e-01 -4.999629e-02) (2.278664e-04 8.089398e-05 2.766076e-05)) ((-8.902622e-04 -6.225430e-02 2.219467e-03) (2.238085e-06 -1.341393e-04 -5.175193e-06))
0.000230076   	((2.175819e-02 -7.236258e-01 -4.843944e-02) (2.176720e-04 8.631824e-05 1.987991e-05)) ((-8.114502e-04 -6.095211e-02 2.148259e-03) (2.398964e-06 -1.334471e-04 -4.846912e-06))
0.000244429   	((2.001515e-02 -7.071027e-01 -4.736770e-02) (2.082013e-04 9.152491e-05 1.267403e-05)) ((-7.313448e-04 -5.974866e-02 2.095680e-03) (2.527557e-06 -1.327053e-04 -4.548082e-06))
0.000258782   	((1.844263e-02 -6.928182e-01 -4.576472e-02) (1.993764e-04 9.643524e-05 5.934115e-06)) ((-6.602713e-04 -5.875181e-02 2.018195e-03) (2.624220e-06 -1.319462e-04 -4.271002e-06))
0.000273135   	((1.703268e-02 -6.794405e-01 -4.447969e-02) (1.910415e-04 1.007668e-04 -4.429864e-07)) ((-5.993751e-04 -5.780212e-02 1.953431e-03) (2.661988e-06 -1.311746e-04 -4.010334e-06))
0.000287488   	((1.564989e-02 -6.673406e-01 -4.314804e-02) (1.830604e-04 1.053274e-04 -5.995382e-06)) ((-5.398284e-04 -5.695095e-02 1.891889e-03) (2.717878e-06 -1.303582e-04 -3.780421e-06))
0.000301841   	((1.455388e-02 -6.560183e-01 -4.251462e-02) (1.757556e-04 1.096593e-04 -1.124483e-05)) ((-4.946082e-04 -5.614395e-02 1.857322e-03) (2.758250e-06 -1.295434e-04 -3.558968e-06))
0.000316195   	((1.345301e-02 -6.458833e-01 -4.197077e-02) (1.689341e-04 1.137007e-04 -1.609218e-05)) ((-4.485102e-04 -5.542971e-02 1.829883e-03) (2.775754e-06 -1.287348e-04 -3.353415e-06))
0.000330548   	((1.255743e-02 -6.366618e-01 -4.094467e-02) (1.626171e-04 1.175209e-04 -2.066210e-05)) ((-4.163294e-04 -5.478684e-02 1.781093e-03) (2.775036e-06 -1.279229e-04 -3.169043e-06))
0.000344901   	((1.140118e-02 -6.280690e-01 -3.987639e-02) (1.566147e-04 1.211558e-04 -2.499640e-05)) ((-3.688913e-04 -5.419064e-02 1.732182e-03) (2.763084e-06 -1.270987e-04 -2.999908e-06))
0.000359254   	((1.022601e-02 -6.202644e-01 -3.882638e-02) (1.509204e-04 1.246588e-04 -2.904445e-05)) ((-3.218120e-04 -5.365946e-02 1.684390e-03) (2.744520e-06 -1.262677e-04 -2.845780e-06))
0.000373607   	((9.561457e-03 -6.129672e-01 -3.769191e-02) (1.455544e-04 1.280379e-04 -3.281606e-05)) ((-2.955656e-04 -5.316304e-02 1.635086e-03) (2.717982e-06 -1.254459e-04 -2.701614e-06))
0.00038796    	((9.147310e-03 -6.055676e-01 -3.648627e-02) (1.404662e-04 1.313297e-04 -3.638298e-05)) ((-2.805804e-04 -5.263891e-02 1.578615e-03) (2.689400e-06 -1.246411e-04 -2.568984e-06))
0.000402314   	((8.376995e-03 -5.987144e-01 -3.530065e-02) (1.356234e-04 1.344946e-04 -3.969218e-05)) ((-2.506836e-04 -5.215344e-02 1.527566e-03) (2.659982e-06 -1.238357e-04 -2.444626e-06))
0.000416667   	((7.628965e-03 -5.923882e-01 -3.382881e-02) (1.312181e-04 1.376183e-04 -4.267982e-05)) ((-2.175348e-04 -5.170684e-02 1.466837e-03) (2.611651e-06 -1.230222e-04 -2.326748e-06))
0.000431034   	((7.416337e-03 -5.862659e-01 -3.271697e-02) (1.271810e-04 1.405641e-04 -4.521234e-05)) ((-2.068584e-04 -5.127569e-02 1.415890e-03) (2.554138e-06 -1.222180e-04 -2.218409e-06))
0.000445402   	((6.835940e-03 -5.806621e-01 -3.100854e-02) (1.232751e-04 1.435931e-04 -4.740783e-05)) ((-1.772742e-04 -5.088900e-02 1.344588e-03) (2.503763e-06 -1.214028e-04 -2.129413e-06))
0.00045977    	((6.209196e-03 -5.754792e-01 -2.940179e-02) (1.194984e-04 1.465583e-04 -4.947148e-05)) ((-1.478936e-04 -5.055521e-02 1.276976e-03) (2.451030e-06 -1.205949e-04 -2.044105e-06))
0.000474138   	((5.728159e-03 -5.708520e-01 -2.815835e-02) (1.158655e-04 1.494461e-04 -5.147387e-05)) ((-1.260875e-04 -5.026053e-02 1.222021e-03) (2.396355e-06 -1.197865e-04 -1.962910e-06))
0.000488506   	((5.404499e-03 -5.664508e-01 -2.708797e-02) (1.123602e-04 1.523253e-04 -5.335840e-05)) ((-1.113390e-04 -4.997069e-02 1.178269e-03) (2.340458e-06 -1.189780e-04 -1.889569e-06))
0.000502874   	((4.935403e-03 -5.622865e-01 -2.591942e-02) (1.089324e-04 1.550945e-04 -5.514783e-05)) ((-9.201366e-05 -4.969304e-02 1.133116e-03) (2.282711e-06 -1.181852e-04 -1.816302e-06))
0.000517241   	((4.716639e-03 -5.583130e-01 -2.493117e-02) (1.056297e-04 1.577705e-04 -5.676476e-05)) ((-8.168432e-05 -4.943624e-02 1.092992e-03) (2.223347e-06 -1.173977e-04 -1.746018e-06))
0.000531609   	((4.536202e-03 -5.546294e-01 -2.387671e-02) (1.025942e-04 1.603446e-04 -5.824266e-05)) ((-7.153715e-05 -4.919123e-02 1.049611e-03) (2.164124e-06 -1.166141e-04 -1.677586e-06))
0.000545977   	((4.612514e-03 -5.509500e-01 -2.247149e-02) (9.972401e-05 1.629121e-04 -5.949343e-05)) ((-6.863675e-05 -4.895698e-02 9.933940e-04) (2.102900e-06 -1.158314e-04 -1.615794e-06))
0.000560345   	((4.765414e-03 -5.473449e-01 -2.114326e-02) (9.694345e-05 1.654094e-04 -6.064403e-05)) ((-6.885251e-05 -4.870966e-02 9.414149e-04) (2.041095e-06 -1.150585e-04 -1.556498e-06))
0.000574713   	((4.690078e-03 -5.440312e-01 -1.997124e-02) (9.415832e-05 1.678158e-04 -6.167803e-05)) ((-6.358442e-05 -4.849331e-02 8.951923e-04) (1.986656e-06 -1.142978e-04 -1.500696e-06))
0.00058908    	((4.717328e-03 -5.406596e-01 -1.895851e-02) (9.146278e-05 1.701816e-04 -6.259553e-05)) ((-6.446577e-05 -4.826334e-02 8.523781e-04) (1.936879e-06 -1.135425e-04 -1.446579e-06))
0.000603448   	((4.676903e-03 -5.379205e-01 -1.799993e-02) (8.892186e-05 1.725404e-04 -6.339068e-05)) ((-6.103497e-05 -4.810551e-02 8.106422e-04) (1.887434e-06 -1.127879e-04 -1.392743e-06))
0.000617816   	((4.914752e-03 -5.349789e-01 -1.750777e-02) (8.646653e-05 1.749199e-04 -6.409263e-05)) ((-7.247057e-05 -4.791358e-02 7.880818e-04) (1.840103e-06 -1.120371e-04 -1.339336e-06))
0.000632184   	((4.899625e-03 -5.325835e-01 -1.706185e-02) (8.410022e-05 1.772734e-04 -6.471006e-05)) ((-7.328090e-05 -4.777532e-02 7.674320e-04) (1.792023e-06 -1.112891e-04 -1.284786e-06))
0.000646552   	((4.819394e-03 -5.301184e-01 -1.611527e-02) (8.184603e-05 1.796215e-04 -6.523358e-05)) ((-6.764522e-05 -4.762381e-02 7.315016e-04) (1.742616e-06 -1.105424e-04 -1.229803e-06))
0.00066092    	((4.804705e-03 -5.274780e-01 -1.561124e-02) (7.973273e-05 1.819554e-04 -6.565736e-05)) ((-6.957523e-05 -4.745151e-02 7.091221e-04) (1.691556e-06 -1.097959e-04 -1.177161e-06))
0.000675287   	((4.705995e-03 -5.250139e-01 -1.505191e-02) (7.765964e-05 1.842301e-04 -6.596015e-05)) ((-6.748072e-05 -4.729244e-02 6.860462e-04) (1.642490e-06 -1.090554e-04 -1.126597e-06))
0.000689655   	((4.237612e-03 -5.228019e-01 -1.451734e-02) (7.563627e-05 1.864459e-04 -6.616575e-05)) ((-5.015255e-05 -4.715074e-02 6.667864e-04) (1.593186e-06 -1.083289e-04 -1.076313e-06))
0.000704023   	((4.229787e-03 -5.205038e-01 -1.393505e-02) (7.366635e-05 1.885849e-04 -6.632944e-05)) ((-5.088966e-05 -4.700468e-02 6.414864e-04) (1.545566e-06 -1.076163e-04 -1.027320e-06))
0.000718391   	((3.929329e-03 -5.183367e-01 -1.369200e-02) (7.169940e-05 1.906363e-04 -6.641249e-05)) ((-4.006261e-05 -4.687108e-02 6.306995e-04) (1.499188e-06 -1.069118e-04 -9.795233e-07))
0.000732759   	((3.768557e-03 -5.161963e-01 -1.331098e-02) (6.978877e-05 1.926294e-04 -6.641036e-05)) ((-3.383124e-05 -4.673602e-02 6.102427e-04) (1.454735e-06 -1.062176e-04 -9.349146e-07))
0.000747126   	((3.542158e-03 -5.141972e-01 -1.293166e-02) (6.790704e-05 1.945665e-04 -6.633456e-05)) ((-2.629512e-05 -4.661253e-02 5.952435e-04) (1.410887e-06 -1.055353e-04 -8.928456e-07))
0.000761494   	((3.458442e-03 -5.122535e-01 -1.233870e-02) (6.609418e-05 1.964922e-04 -6.615362e-05)) ((-2.068824e-05 -4.648790e-02 5.706596e-04) (1.365432e-06 -1.048606e-04 -8.537027e-07))
0.000775862   	((3.086989e-03 -5.103105e-01 -1.190199e-02) (6.432792e-05 1.983691e-04 -6.588679e-05)) ((-7.549147e-06 -4.636236e-02 5.524565e-04) (1.318725e-06 -1.041956e-04 -8.166926e-07))
0.00079023    	((3.211161e-03 -5.084426e-01 -1.158359e-02) (6.258214e-05 2.001967e-04 -6.554325e-05)) ((-1.301778e-05 -4.624288e-02 5.374810e-04) (1.272562e-06 -1.035393e-04 -7.830219e-07))
0.000804598   	((2.992177e-03 -5.066099e-01 -1.119650e-02) (6.086188e-05 2.019551e-04 -6.516270e-05)) ((-5.027962e-06 -4.612679e-02 5.208329e-04) (1.226499e-06 -1.028936e-04 -7.512362e-07))
0.000818966   	((2.808711e-03 -5.048476e-01 -1.050859e-02) (5.917436e-05 2.036601e-04 -6.477439e-05)) ((1.333033e-06 -4.601851e-02 4.932871e-04) (1.181745e-06 -1.022562e-04 -7.204215e-07))
0.000833333   	((2.802463e-03 -5.034545e-01 -9.761001e-03) (5.756593e-05 2.053258e-04 -6.436263e-05)) ((2.640662e-06 -4.594659e-02 4.634629e-04) (1.139311e-06 -1.016298e-04 -6.887276e-07))
0.000847701   	((2.785708e-03 -5.018399e-01 -9.291262e-03) (5.603409e-05 2.069934e-04 -6.391069e-05)) ((1.868833e-06 -4.583704e-02 4.456285e-04) (1.102155e-06 -1.010147e-04 -6.620862e-07))
0.000862069   	((2.492302e-03 -5.002170e-01 -9.109745e-03) (5.451103e-05 2.085846e-04 -6.344721e-05)) ((8.827903e-06 -4.572600e-02 4.402811e-04) (1.066724e-06 -1.004099e-04 -6.361645e-07))
0.000876437   	((2.318942e-03 -4.985978e-01 -8.879007e-03) (5.302444e-05 2.101049e-04 -6.298146e-05)) ((1.250924e-05 -4.561890e-02 4.294113e-04) (1.031597e-06 -9.981678e-05 -6.116178e-07))
0.000890805   	((2.085068e-03 -4.970445e-01 -8.529215e-03) (5.164652e-05 2.115706e-04 -6.249229e-05)) ((1.870388e-05 -4.551108e-02 4.176252e-04) (9.946519e-07 -9.922890e-05 -5.891363e-07))
0.000905172   	((1.992256e-03 -4.954506e-01 -8.347738e-03) (5.037837e-05 2.129965e-04 -6.194680e-05)) ((1.691396e-05 -4.539955e-02 4.117087e-04) (9.580321e-07 -9.864402e-05 -5.696054e-07))
0.00091954    	((2.052596e-03 -4.940053e-01 -8.383321e-03) (4.915315e-05 2.143451e-04 -6.139631e-05)) ((7.878971e-06 -4.530389e-02 4.110248e-04) (9.219385e-07 -9.806813e-05 -5.510246e-07))
0.000933908   	((2.224078e-03 -4.925329e-01 -8.390115e-03) (4.798883e-05 2.156561e-04 -6.075874e-05)) ((-2.229404e-06 -4.519235e-02 4.070272e-04) (8.853649e-07 -9.749806e-05 -5.337463e-07))
0.000948276   	((2.427131e-03 -4.911143e-01 -8.156276e-03) (4.684939e-05 2.169028e-04 -6.012434e-05)) ((-1.129914e-05 -4.509336e-02 3.943740e-04) (8.493343e-07 -9.693936e-05 -5.161567e-07))
0.000962644   	((2.566039e-03 -4.897175e-01 -8.231384e-03) (4.575926e-05 2.180950e-04 -5.947737e-05)) ((-2.157396e-05 -4.499690e-02 3.968291e-04) (8.132146e-07 -9.638885e-05 -4.986914e-07))
0.000977011   	((2.620820e-03 -4.882743e-01 -7.766334e-03) (4.470488e-05 2.192446e-04 -5.880722e-05)) ((-2.510162e-05 -4.489041e-02 3.796235e-04) (7.774284e-07 -9.584620e-05 -4.819218e-07))
0.000991379   	((2.820902e-03 -4.868981e-01 -7.727693e-03) (4.369547e-05 2.203495e-04 -5.811430e-05)) ((-3.598147e-05 -4.478638e-02 3.752971e-04) (7.397573e-07 -9.531006e-05 -4.659622e-07))
0.00100575    	((2.743365e-03 -4.857359e-01 -7.628420e-03) (4.271472e-05 2.213676e-04 -5.741903e-05)) ((-3.644215e-05 -4.470789e-02 3.707850e-04) (7.023118e-07 -9.478408e-05 -4.507031e-07))
0.00102011    	((2.658452e-03 -4.844916e-01 -7.715643e-03) (4.179629e-05 2.222979e-04 -5.674616e-05)) ((-4.009794e-05 -4.460835e-02 3.728106e-04) (6.651758e-07 -9.426690e-05 -4.351134e-07))
0.00103448    	((2.648099e-03 -4.833675e-01 -7.646991e-03) (4.097910e-05 2.232622e-04 -5.606126e-05)) ((-4.452401e-05 -4.452971e-02 3.683153e-04) (6.212957e-07 -9.375285e-05 -4.184278e-07))
0.00104885    	((2.676003e-03 -4.822636e-01 -7.352052e-03) (4.020019e-05 2.241326e-04 -5.535322e-05)) ((-4.522498e-05 -4.445108e-02 3.560807e-04) (5.779957e-07 -9.324817e-05 -4.021116e-07))
0.00106322    	((2.802589e-03 -4.812866e-01 -7.251000e-03) (3.944692e-05 2.249180e-04 -5.465189e-05)) ((-5.157111e-05 -4.437732e-02 3.513033e-04) (5.363735e-07 -9.275243e-05 -3.867856e-07))
0.00107759    	((3.033137e-03 -4.803049e-01 -7.010968e-03) (3.871853e-05 2.256250e-04 -5.394012e-05)) ((-6.127115e-05 -4.430196e-02 3.399077e-04) (4.966170e-07 -9.226490e-05 -3.726797e-07))
0.00109195    	((3.075758e-03 -4.792526e-01 -6.789228e-03) (3.801451e-05 2.262495e-04 -5.321456e-05)) ((-6.514515e-05 -4.421845e-02 3.321123e-04) (4.576795e-07 -9.178404e-05 -3.600237e-07))
0.00110632    	((3.160434e-03 -4.782705e-01 -6.520906e-03) (3.733594e-05 2.267949e-04 -5.255297e-05)) ((-7.119467e-05 -4.414457e-02 3.228886e-04) (4.191189e-07 -9.131337e-05 -3.478277e-07))
0.00112069    	((3.094723e-03 -4.772506e-01 -6.215070e-03) (3.670324e-05 2.272838e-04 -5.194395e-05)) ((-7.240038e-05 -4.406405e-02 3.103227e-04) (3.796612e-07 -9.084915e-05 -3.352046e-07))
0.00113506    	((2.836914e-03 -4.760854e-01 -6.211778e-03) (3.610376e-05 2.276993e-04 -5.133627e-05)) ((-6.514340e-05 -4.397106e-02 3.122340e-04) (3.406684e-07 -9.039161e-05 -3.238453e-07))
0.00114943    	((2.712152e-03 -4.749874e-01 -6.297853e-03) (3.552555e-05 2.280312e-04 -5.074961e-05)) ((-6.367280e-05 -4.388435e-02 3.142517e-04) (3.027904e-07 -8.994199e-05 -3.127972e-07))
0.00116379    	((2.539428e-03 -4.740922e-01 -6.144278e-03) (3.498677e-05 2.282722e-04 -5.018119e-05)) ((-5.815689e-05 -4.381865e-02 3.093599e-04) (2.664885e-07 -8.950036e-05 -3.017365e-07))
0.00117816    	((2.605128e-03 -4.731454e-01 -6.213876e-03) (3.447039e-05 2.284258e-04 -4.962874e-05)) ((-6.386098e-05 -4.374103e-02 3.127883e-04) (2.323733e-07 -8.906573e-05 -2.906913e-07))
0.00119253    	((2.423156e-03 -4.722349e-01 -6.239865e-03) (3.396116e-05 2.285083e-04 -4.907172e-05)) ((-6.196173e-05 -4.366032e-02 3.162661e-04) (2.008035e-07 -8.863804e-05 -2.794357e-07))
0.0012069     	((2.468569e-03 -4.713307e-01 -6.106027e-03) (3.348204e-05 2.285040e-04 -4.853676e-05)) ((-6.607057e-05 -4.358544e-02 3.089093e-04) (1.713624e-07 -8.821673e-05 -2.678556e-07))
0.00122126    	((2.334397e-03 -4.705251e-01 -6.095056e-03) (3.301714e-05 2.284273e-04 -4.801410e-05)) ((-6.463160e-05 -4.352351e-02 3.075806e-04) (1.430678e-07 -8.780270e-05 -2.558083e-07))
0.00123563    	((2.284970e-03 -4.697198e-01 -6.135076e-03) (3.257829e-05 2.282827e-04 -4.750784e-05)) ((-6.605846e-05 -4.345284e-02 3.067623e-04) (1.156057e-07 -8.739381e-05 -2.431529e-07))
0.00125       	((2.220532e-03 -4.689369e-01 -6.099469e-03) (3.216114e-05 2.280505e-04 -4.700781e-05)) ((-6.610925e-05 -4.339072e-02 3.038536e-04) (9.004579e-08 -8.699097e-05 -2.299109e-07))
0.00126437    	((2.108304e-03 -4.680704e-01 -6.055292e-03) (3.176440e-05 2.277452e-04 -4.651217e-05)) ((-6.506144e-05 -4.331767e-02 3.014580e-04) (6.784035e-08 -8.659456e-05 -2.165305e-07))
0.00127874    	((2.066335e-03 -4.670977e-01 -6.070842e-03) (3.139314e-05 2.274307e-04 -4.602289e-05)) ((-6.632278e-05 -4.323328e-02 3.023307e-04) (4.519575e-08 -8.620371e-05 -2.016635e-07))
0.0012931     	((2.227123e-03 -4.660303e-01 -6.295845e-03) (3.104456e-05 2.270709e-04 -4.553570e-05)) ((-7.680038e-05 -4.313600e-02 3.076342e-04) (2.176214e-08 -8.581963e-05 -1.864975e-07))
0.00130747    	((2.298245e-03 -4.652550e-01 -6.271911e-03) (3.071851e-05 2.266495e-04 -4.504454e-05)) ((-8.167138e-05 -4.306716e-02 3.067677e-04) (-6.196074e-10 -8.544183e-05 -1.721175e-07))
0.00132184    	((2.518647e-03 -4.642446e-01 -6.233086e-03) (3.040772e-05 2.261749e-04 -4.455112e-05)) ((-9.299379e-05 -4.297266e-02 3.039020e-04) (-2.163421e-08 -8.506785e-05 -1.592216e-07))
0.00133621    	((2.611957e-03 -4.634006e-01 -6.164472e-03) (3.014062e-05 2.256729e-04 -4.403969e-05)) ((-9.872159e-05 -4.289830e-02 2.992407e-04) (-4.217880e-08 -8.469920e-05 -1.458129e-07))
0.00135057    	((2.671123e-03 -4.626275e-01 -6.136415e-03) (2.988943e-05 2.251184e-04 -4.348353e-05)) ((-1.008628e-04 -4.282603e-02 2.969464e-04) (-6.195190e-08 -8.433510e-05 -1.340213e-07))
0.00136494    	((2.674924e-03 -4.617889e-01 -6.157014e-03) (2.962155e-05 2.244888e-04 -4.291897e-05)) ((-1.030921e-04 -4.275084e-02 2.978979e-04) (-8.092558e-08 -8.397868e-05 -1.226809e-07))
0.00137931    	((2.562568e-03 -4.607782e-01 -6.191900e-03) (2.939431e-05 2.238345e-04 -4.233607e-05)) ((-1.017296e-04 -4.266193e-02 2.996779e-04) (-1.008643e-07 -8.362691e-05 -1.130915e-07))
0.00139368    	((2.627551e-03 -4.600043e-01 -5.974195e-03) (2.916250e-05 2.231599e-04 -4.171453e-05)) ((-1.059498e-04 -4.259235e-02 2.908424e-04) (-1.215737e-07 -8.327961e-05 -1.048896e-07))
0.00140805    	((2.702809e-03 -4.591843e-01 -6.064328e-03) (2.893103e-05 2.224240e-04 -4.107172e-05)) ((-1.121393e-04 -4.251660e-02 2.931372e-04) (-1.405610e-07 -8.293833e-05 -9.716002e-08))
0.00142241    	((2.534978e-03 -4.584088e-01 -6.038066e-03) (2.869989e-05 2.216212e-04 -4.041577e-05)) ((-1.074789e-04 -4.244183e-02 2.921368e-04) (-1.581430e-07 -8.260304e-05 -9.033773e-08))
0.00143678    	((2.321718e-03 -4.574802e-01 -5.981556e-03) (2.847647e-05 2.207622e-04 -3.974961e-05)) ((-9.969223e-05 -4.235050e-02 2.926145e-04) (-1.752116e-07 -8.227312e-05 -8.408972e-08))
0.00145115    	((2.320608e-03 -4.566909e-01 -5.888628e-03) (2.825642e-05 2.198715e-04 -3.911561e-05)) ((-1.004254e-04 -4.227929e-02 2.894197e-04) (-1.923814e-07 -8.194661e-05 -7.799382e-08))
0.00146552    	((2.367939e-03 -4.558089e-01 -5.855642e-03) (2.802464e-05 2.189362e-04 -3.849157e-05)) ((-1.066125e-04 -4.219579e-02 2.883500e-04) (-2.083198e-07 -8.162523e-05 -7.168692e-08))
0.00147989    	((2.542419e-03 -4.549534e-01 -5.931482e-03) (2.779169e-05 2.179561e-04 -3.786586e-05)) ((-1.155739e-04 -4.211801e-02 2.901694e-04) (-2.226505e-07 -8.130767e-05 -6.581796e-08))
0.00149425    	((2.611445e-03 -4.539473e-01 -5.976465e-03) (2.756549e-05 2.169304e-04 -3.725008e-05)) ((-1.197923e-04 -4.202278e-02 2.920835e-04) (-2.360847e-07 -8.099400e-05 -5.941310e-08))
0.00150862    	((2.774859e-03 -4.529243e-01 -5.894592e-03) (2.734941e-05 2.158508e-04 -3.665390e-05)) ((-1.283889e-04 -4.192634e-02 2.865734e-04) (-2.482844e-07 -8.068533e-05 -5.292046e-08))
0.00152299    	((2.872154e-03 -4.520355e-01 -5.906500e-03) (2.712696e-05 2.147107e-04 -3.607742e-05)) ((-1.350202e-04 -4.183702e-02 2.846480e-04) (-2.589483e-07 -8.038195e-05 -4.693659e-08))
0.00153736    	((2.982613e-03 -4.510764e-01 -5.911108e-03) (2.693912e-05 2.135066e-04 -3.552631e-05)) ((-1.418564e-04 -4.174258e-02 2.867776e-04) (-2.701267e-07 -8.008299e-05 -3.982691e-08))
0.00155172    	((3.137663e-03 -4.501164e-01 -5.898230e-03) (2.676415e-05 2.122268e-04 -3.498428e-05)) ((-1.501865e-04 -4.165041e-02 2.862931e-04) (-2.815080e-07 -7.978573e-05 -3.102840e-08))
0.00156609    	((3.116253e-03 -4.492079e-01 -5.797405e-03) (2.659162e-05 2.109092e-04 -3.443770e-05)) ((-1.519921e-04 -4.156456e-02 2.836552e-04) (-2.922727e-07 -7.949027e-05 -2.223778e-08))
0.00158046    	((3.249884e-03 -4.482878e-01 -5.756127e-03) (2.643113e-05 2.095600e-04 -3.389869e-05)) ((-1.592668e-04 -4.147816e-02 2.811524e-04) (-3.032306e-07 -7.919619e-05 -1.294197e-08))
0.00159483    	((3.490028e-03 -4.473666e-01 -5.511562e-03) (2.627773e-05 2.081632e-04 -3.336568e-05)) ((-1.693523e-04 -4.139247e-02 2.714186e-04) (-3.134466e-07 -7.890567e-05 -3.643785e-09))
0.0016092     	((3.492675e-03 -4.464764e-01 -5.415971e-03) (2.612803e-05 2.067316e-04 -3.283430e-05)) ((-1.716138e-04 -4.130272e-02 2.686682e-04) (-3.222782e-07 -7.861791e-05 5.788039e-09))
0.00162356    	((3.638533e-03 -4.454510e-01 -5.230356e-03) (2.598183e-05 2.052641e-04 -3.230268e-05)) ((-1.755190e-04 -4.119782e-02 2.614529e-04) (-3.297330e-07 -7.833340e-05 1.459721e-08))
0.00163793    	((3.633481e-03 -4.445585e-01 -5.290417e-03) (2.584196e-05 2.037606e-04 -3.178323e-05)) ((-1.778613e-04 -4.110426e-02 2.656839e-04) (-3.366454e-07 -7.805232e-05 2.299704e-08))
0.0016523     	((3.753403e-03 -4.437327e-01 -5.317899e-03) (2.570581e-05 2.022207e-04 -3.128359e-05)) ((-1.851392e-04 -4.102469e-02 2.670423e-04) (-3.435481e-07 -7.777512e-05 3.124329e-08))
0.00166667    	((3.852933e-03 -4.429429e-01 -5.313160e-03) (2.558237e-05 2.006456e-04 -3.080117e-05)) ((-1.893442e-04 -4.094505e-02 2.681107e-04) (-3.503921e-07 -7.750120e-05 4.015340e-08))
0.00168103    	((3.953702e-03 -4.421018e-01 -5.343398e-03) (2.546762e-05 1.990327e-04 -3.034402e-05)) ((-1.953905e-04 -4.086275e-02 2.688499e-04) (-3.562976e-07 -7.723043e-05 4.990320e-08))
0.0016954     	((4.046191e-03 -4.411880e-01 -5.372152e-03) (2.536900e-05 1.973946e-04 -2.993145e-05)) ((-2.005765e-04 -4.076696e-02 2.710840e-04) (-3.617820e-07 -7.696258e-05 6.014354e-08))
0.00170977    	((4.163453e-03 -4.404258e-01 -5.431690e-03) (2.529652e-05 1.957333e-04 -2.955261e-05)) ((-2.077513e-04 -4.069159e-02 2.723957e-04) (-3.670445e-07 -7.670019e-05 7.096492e-08))
0.00172414    	((4.335281e-03 -4.395002e-01 -5.290963e-03) (2.525801e-05 1.940514e-04 -2.919790e-05)) ((-2.149782e-04 -4.059320e-02 2.656798e-04) (-3.720849e-07 -7.644242e-05 8.199281e-08))
0.00173851    	((4.373621e-03 -4.386920e-01 -5.123927e-03) (2.522504e-05 1.923508e-04 -2.884111e-05)) ((-2.166628e-04 -4.050906e-02 2.594262e-04) (-3.769939e-07 -7.618713e-05 9.295803e-08))
0.00175287    	((4.491624e-03 -4.378273e-01 -5.123812e-03) (2.519456e-05 1.906358e-04 -2.847333e-05)) ((-2.223315e-04 -4.042058e-02 2.582159e-04) (-3.817046e-07 -7.593376e-05 1.040039e-07))
0.00176724    	((4.581259e-03 -4.369751e-01 -5.090632e-03) (2.516223e-05 1.889247e-04 -2.808465e-05)) ((-2.282744e-04 -4.033109e-02 2.572915e-04) (-3.855729e-07 -7.568208e-05 1.133100e-07))
0.00178161    	((4.549002e-03 -4.361277e-01 -5.056554e-03) (2.514587e-05 1.871992e-04 -2.768298e-05)) ((-2.287616e-04 -4.024189e-02 2.570991e-04) (-3.898392e-07 -7.543151e-05 1.223421e-07))
0.00179598    	((4.633090e-03 -4.352320e-01 -5.024353e-03) (2.513616e-05 1.854451e-04 -2.728687e-05)) ((-2.319608e-04 -4.014716e-02 2.547036e-04) (-3.936807e-07 -7.518237e-05 1.314603e-07))
0.00181034    	((4.764546e-03 -4.343671e-01 -5.107339e-03) (2.512194e-05 1.836833e-04 -2.688246e-05)) ((-2.375728e-04 -4.006322e-02 2.562074e-04) (-3.965282e-07 -7.493451e-05 1.397153e-07))
0.00182471    	((4.912144e-03 -4.336337e-01 -5.024697e-03) (2.508623e-05 1.818955e-04 -2.647988e-05)) ((-2.442306e-04 -3.999124e-02 2.520877e-04) (-3.985373e-07 -7.468848e-05 1.472781e-07))
0.00183908    	((4.947415e-03 -4.327502e-01 -4.967685e-03) (2.504344e-05 1.800727e-04 -2.607163e-05)) ((-2.466064e-04 -3.990111e-02 2.489793e-04) (-4.002422e-07 -7.444498e-05 1.545060e-07))
0.00185345    	((5.095693e-03 -4.320230e-01 -4.752540e-03) (2.500131e-05 1.782205e-04 -2.565957e-05)) ((-2.521174e-04 -3.982621e-02 2.394157e-04) (-4.016885e-07 -7.420378e-05 1.612411e-07))
0.00186782    	((5.155165e-03 -4.311779e-01 -4.624283e-03) (2.497642e-05 1.763437e-04 -2.524207e-05)) ((-2.550615e-04 -3.973703e-02 2.351092e-04) (-4.030047e-07 -7.396436e-05 1.678650e-07))
0.00188218    	((5.087614e-03 -4.301874e-01 -4.828346e-03) (2.496331e-05 1.744493e-04 -2.482190e-05)) ((-2.548116e-04 -3.963494e-02 2.434403e-04) (-4.044434e-07 -7.372559e-05 1.746606e-07))
0.00189655    	((5.027465e-03 -4.293344e-01 -4.899890e-03) (2.497297e-05 1.725293e-04 -2.439644e-05)) ((-2.556099e-04 -3.954465e-02 2.467646e-04) (-4.060474e-07 -7.348779e-05 1.812302e-07))
0.00191092    	((5.153809e-03 -4.285327e-01 -4.918396e-03) (2.498648e-05 1.705805e-04 -2.396347e-05)) ((-2.609664e-04 -3.946021e-02 2.467246e-04) (-4.072074e-07 -7.325280e-05 1.872592e-07))
0.00192529    	((5.291310e-03 -4.277431e-01 -4.825433e-03) (2.501680e-05 1.686124e-04 -2.352208e-05)) ((-2.672540e-04 -3.937821e-02 2.417203e-04) (-4.082853e-07 -7.301865e-05 1.928453e-07))
0.00193966    	((5.259096e-03 -4.268298e-01 -4.907731e-03) (2.504212e-05 1.666297e-04 -2.307680e-05)) ((-2.656176e-04 -3.928480e-02 2.439665e-04) (-4.090657e-07 -7.278570e-05 1.985297e-07))
0.00195402    	((5.400521e-03 -4.258346e-01 -4.717389e-03) (2.507402e-05 1.646373e-04 -2.264028e-05)) ((-2.719372e-04 -3.917121e-02 2.354133e-04) (-4.093813e-07 -7.255512e-05 2.042422e-07))
0.00196839    	((5.453412e-03 -4.249517e-01 -4.462773e-03) (2.511131e-05 1.626177e-04 -2.220103e-05)) ((-2.750777e-04 -3.908017e-02 2.236251e-04) (-4.088514e-07 -7.232706e-05 2.096092e-07))
0.00198276    	((5.713101e-03 -4.241947e-01 -4.283716e-03) (2.513636e-05 1.605698e-04 -2.175872e-05)) ((-2.848265e-04 -3.900754e-02 2.154629e-04) (-4.068555e-07 -7.210175e-05 2.143478e-07))
0.00199713    	((5.584367e-03 -4.234855e-01 -4.166637e-03) (2.513650e-05 1.584644e-04 -2.130694e-05)) ((-2.803204e-04 -3.893810e-02 2.108018e-04) (-4.011407e-07 -7.188137e-05 2.175333e-07))
0.00201149    	((5.724209e-03 -4.228066e-01 -3.882206e-03) (2.513516e-05 1.563385e-04 -2.086854e-05)) ((-2.854740e-04 -3.886768e-02 1.980877e-04) (-3.948610e-07 -7.166051e-05 2.204818e-07))
0.00202586    	((5.802710e-03 -4.219986e-01 -3.822840e-03) (2.513521e-05 1.542015e-04 -2.043904e-05)) ((-2.893713e-04 -3.878219e-02 1.939236e-04) (-3.888695e-07 -7.144057e-05 2.235059e-07))
0.00204023    	((5.790696e-03 -4.212736e-01 -3.885158e-03) (2.512892e-05 1.520343e-04 -2.001796e-05)) ((-2.905792e-04 -3.870503e-02 1.930629e-04) (-3.813890e-07 -7.122285e-05 2.261765e-07))
0.0020546     	((5.691162e-03 -4.206205e-01 -3.823165e-03) (2.513355e-05 1.498628e-04 -1.961044e-05)) ((-2.875961e-04 -3.863791e-02 1.909416e-04) (-3.739657e-07 -7.100662e-05 2.289458e-07))
0.00206897    	((5.643971e-03 -4.199057e-01 -3.786951e-03) (2.515425e-05 1.476942e-04 -1.922217e-05)) ((-2.867262e-04 -3.856427e-02 1.896237e-04) (-3.665580e-07 -7.079220e-05 2.320456e-07))
0.00208333    	((5.573975e-03 -4.192464e-01 -3.783087e-03) (2.518163e-05 1.455204e-04 -1.885145e-05)) ((-2.845678e-04 -3.849428e-02 1.895067e-04) (-3.597233e-07 -7.057969e-05 2.355217e-07))
0.0020977     	((5.499435e-03 -4.185677e-01 -3.793163e-03) (2.522001e-05 1.433452e-04 -1.849306e-05)) ((-2.834345e-04 -3.842377e-02 1.892148e-04) (-3.534909e-07 -7.036765e-05 2.392666e-07))
0.00211207    	((5.587914e-03 -4.177930e-01 -3.622031e-03) (2.527438e-05 1.411793e-04 -1.813627e-05)) ((-2.863916e-04 -3.834685e-02 1.825766e-04) (-3.481360e-07 -7.015652e-05 2.416808e-07))
0.00212644    	((5.663243e-03 -4.169722e-01 -3.670261e-03) (2.532761e-05 1.390081e-04 -1.778083e-05)) ((-2.911266e-04 -3.825861e-02 1.834355e-04) (-3.432872e-07 -6.994726e-05 2.439507e-07))
0.0021408     	((5.757489e-03 -4.161449e-01 -3.451274e-03) (2.538134e-05 1.368271e-04 -1.742844e-05)) ((-2.936998e-04 -3.816942e-02 1.742270e-04) (-3.393258e-07 -6.974070e-05 2.462999e-07))
0.00215517    	((5.794850e-03 -4.153976e-01 -3.482486e-03) (2.543485e-05 1.346472e-04 -1.707690e-05)) ((-2.944569e-04 -3.809210e-02 1.754359e-04) (-3.363752e-07 -6.953579e-05 2.488607e-07))
0.00216954    	((5.861575e-03 -4.146561e-01 -3.358522e-03) (2.549530e-05 1.324761e-04 -1.673193e-05)) ((-2.951381e-04 -3.801566e-02 1.722871e-04) (-3.340052e-07 -6.933200e-05 2.523163e-07))
0.00218391    	((5.860390e-03 -4.139279e-01 -3.313345e-03) (2.556121e-05 1.303096e-04 -1.638540e-05)) ((-2.954925e-04 -3.793486e-02 1.736880e-04) (-3.323239e-07 -6.912926e-05 2.563309e-07))
0.00219828    	((5.830226e-03 -4.131755e-01 -3.319248e-03) (2.562073e-05 1.281534e-04 -1.604589e-05)) ((-2.942912e-04 -3.785543e-02 1.752733e-04) (-3.316749e-07 -6.892860e-05 2.607741e-07))
0.00221264    	((5.931208e-03 -4.124071e-01 -3.201340e-03) (2.567773e-05 1.259959e-04 -1.571271e-05)) ((-2.969768e-04 -3.777671e-02 1.711342e-04) (-3.307723e-07 -6.872965e-05 2.655793e-07))